GOMC Serial Version 0.97
Started at: Sun Aug 23 22:19:39 2015
On hostname: potoff44.eng.wayne.edu

------------------------------------------------------
This code was compiled to support the Gibbs ensemble.
------------------------------------------------------

 NPT_GEMC simulation has been selected 
 Pressure of system has been set to 37.27 bar 
Warning: Output fluctuation has been set off, energy ouput for fluctuation will be ignored!
Warning: Output fluctuation has been set off, pressure ouput for fluctuation will be ignored!
Warning: Output fluctuation has been set off, molecule number ouput for fluctuation will be ignored!
Warning: Output fluctuation has been set off, accept angles ouput for fluctuation will be ignored!
Warning: Output fluctuation has been set off, density ouput for fluctuation will be ignored!
Reading from Exotic Parameter File file: ./Par_Mie_Alkane_Vrabec01_Noble_Gases_Exotic.inp

Finished reading Exotic Parameter File file: ./Par_Mie_Alkane_Vrabec01_Noble_Gases_Exotic.inp

Reading from Box 1 PDB coordinate file file: ./STEP3_START_KR_C2P_sys_BOX_0.pdb

Finished reading Box 1 PDB coordinate file file: ./STEP3_START_KR_C2P_sys_BOX_0.pdb

Reading from Box 2 PDB coordinate file file: ./STEP3_START_KR_C2P_sys_BOX_1.pdb

Finished reading Box 2 PDB coordinate file file: ./STEP3_START_KR_C2P_sys_BOX_1.pdb

Molecules in PSF:

Molecule Kind: C2P
Idx	name	type	charge	mass
0	C1	CH3	0	15.035
1	C2	CH3	0	15.035

Bonds:
[0 1] 

Angles:

Dihedrals:

Molecule Kind: KR
Idx	name	type	charge	mass
0	KR	KR	0	83.798

Bonds:

Angles:

Dihedrals:

REMAINDER! 1-4 Interaction is OFF

Min. Box Size: 8000.1
STARTING SIMULATION!!


------------------------
--    ==========      --
--  === BOX 0  ===    --
--    ==========      --
------------------------

Volume: 207475 A^3
Tot # mol: 1000

Molecule Type KR
-------------------
Number: 596 ;
Density: 0.399727 g/ml

Molecule Type C2P
-------------------
Number: 404 ;
Density: 0.0972297 g/ml

Energy (in K): total: 5.62088e+07


------------------------
--    ==========      --
--  === BOX 1  ===    --
--    ==========      --
------------------------

Volume: 331374 A^3
Tot # mol: 1000

Molecule Type KR
-------------------
Number: 596 ;
Density: 0.250271 g/ml

Molecule Type C2P
-------------------
Number: 404 ;
Density: 0.0608759 g/ml

Energy (in K): total: -145891

------------------------
--    ==========      --
--  === SYSTEM ===    --
--    ==========      --
------------------------

Energy (in K): total: 5.60629e+07

Printed combined psf to file krypton_ethane_NPT_236_47_K.psf
STEP 99999 of 1000000 (9.9999% done)


------------------------
--    ==========      --
--  === BOX 0  ===    --
--    ==========      --
------------------------

Volume: 208660 A^3
Tot # mol: 1352

Molecule Type KR
-------------------
Number: 705 ;
Density: 0.470146 g/ml

Molecule Type C2P
-------------------
Number: 647 ;
Density: 0.154827 g/ml

Energy (in K): total: -870644

Displace (Box 0) -- tries: 36997; # Accept: 18070; % Accept : 48.8418; Max Amt.: 0.775657
Rotate (Box 0) -- tries: 2503; # Accept: 1363; % Accept : 54.4547; Max Amt.: 2.54422
Molecule Transfer (Box 0 -> Box 1) -- tries: 10101; # Accept: 5195; % Accept : 51.4306
Volume Transfer (Box 0 -> Box 1) -- tries: 479; # Accept: 225; % Accept : 46.9729; Max Amt.: 4437.43


------------------------
--    ==========      --
--  === BOX 1  ===    --
--    ==========      --
------------------------

Volume: 428759 A^3
Tot # mol: 648

Molecule Type KR
-------------------
Number: 487 ;
Density: 0.158052 g/ml

Molecule Type C2P
-------------------
Number: 161 ;
Density: 0.0187498 g/ml

Energy (in K): total: -86273

Displace (Box 1) -- tries: 36898; # Accept: 18296; % Accept : 49.5853; Max Amt.: 4.82596
Rotate (Box 1) -- tries: 2484; # Accept: 1707; % Accept : 68.7198; Max Amt.: 3.14159
Molecule Transfer (Box 1 -> Box 0) -- tries: 10059; # Accept: 5547; % Accept : 55.1446
Volume Transfer (Box 1 -> Box 0) -- tries: 479; # Accept: 255; % Accept : 53.2359; Max Amt.: 24762.5

------------------------
--    ==========      --
--  === SYSTEM ===    --
--    ==========      --
------------------------

Energy (in K): total: -956917

Steps/sec. : 19920.3
STEP 199999 of 1000000 (19.9999% done)


------------------------
--    ==========      --
--  === BOX 0  ===    --
--    ==========      --
------------------------

Volume: 195488 A^3
Tot # mol: 1377

Molecule Type KR
-------------------
Number: 713 ;
Density: 0.50752 g/ml

Molecule Type C2P
-------------------
Number: 664 ;
Density: 0.169602 g/ml

Energy (in K): total: -958419

Displace (Box 0) -- tries: 73931; # Accept: 36566; % Accept : 49.4596; Max Amt.: 0.747936
Rotate (Box 0) -- tries: 4907; # Accept: 2578; % Accept : 52.5372; Max Amt.: 1.46346
Molecule Transfer (Box 0 -> Box 1) -- tries: 20364; # Accept: 9460; % Accept : 46.4545
Volume Transfer (Box 0 -> Box 1) -- tries: 962; # Accept: 456; % Accept : 47.4012; Max Amt.: 1235.66


------------------------
--    ==========      --
--  === BOX 1  ===    --
--    ==========      --
------------------------

Volume: 394101 A^3
Tot # mol: 623

Molecule Type KR
-------------------
Number: 479 ;
Density: 0.169126 g/ml

Molecule Type C2P
-------------------
Number: 144 ;
Density: 0.0182448 g/ml

Energy (in K): total: -78312

Displace (Box 1) -- tries: 73718; # Accept: 36828; % Accept : 49.9579; Max Amt.: 7.97785
Rotate (Box 1) -- tries: 5034; # Accept: 3584; % Accept : 71.1959; Max Amt.: 3.14159
Molecule Transfer (Box 1 -> Box 0) -- tries: 20102; # Accept: 9837; % Accept : 48.9354
Volume Transfer (Box 1 -> Box 0) -- tries: 982; # Accept: 517; % Accept : 52.6477; Max Amt.: 28008.3

------------------------
--    ==========      --
--  === SYSTEM ===    --
--    ==========      --
------------------------

Energy (in K): total: -1.03673e+06

Steps/sec. : 14684.3
STEP 299999 of 1000000 (29.9999% done)


------------------------
--    ==========      --
--  === BOX 0  ===    --
--    ==========      --
------------------------

Volume: 189035 A^3
Tot # mol: 1575

Molecule Type KR
-------------------
Number: 843 ;
Density: 0.620538 g/ml

Molecule Type C2P
-------------------
Number: 732 ;
Density: 0.193353 g/ml

Energy (in K): total: -1.2e+06

Displace (Box 0) -- tries: 111010; # Accept: 55107; % Accept : 49.6415; Max Amt.: 0.602882
Rotate (Box 0) -- tries: 7424; # Accept: 3864; % Accept : 52.0474; Max Amt.: 1.68323
Molecule Transfer (Box 0 -> Box 1) -- tries: 30290; # Accept: 12986; % Accept : 42.8722
Volume Transfer (Box 0 -> Box 1) -- tries: 1432; # Accept: 673; % Accept : 46.9972; Max Amt.: 1663.33


------------------------
--    ==========      --
--  === BOX 1  ===    --
--    ==========      --
------------------------

Volume: 287215 A^3
Tot # mol: 425

Molecule Type KR
-------------------
Number: 349 ;
Density: 0.169083 g/ml

Molecule Type C2P
-------------------
Number: 76 ;
Density: 0.0132126 g/ml

Energy (in K): total: -48232.2

Displace (Box 1) -- tries: 110679; # Accept: 55302; % Accept : 49.9661; Max Amt.: 6.25445
Rotate (Box 1) -- tries: 7558; # Accept: 5387; % Accept : 71.2755; Max Amt.: 3.14159
Molecule Transfer (Box 1 -> Box 0) -- tries: 30143; # Accept: 13561; % Accept : 44.9889
Volume Transfer (Box 1 -> Box 0) -- tries: 1464; # Accept: 755; % Accept : 51.571; Max Amt.: 28394.7

------------------------
--    ==========      --
--  === SYSTEM ===    --
--    ==========      --
------------------------

Energy (in K): total: -1.24823e+06

Steps/sec. : 13459
STEP 399999 of 1000000 (39.9999% done)


------------------------
--    ==========      --
--  === BOX 0  ===    --
--    ==========      --
------------------------

Volume: 187221 A^3
Tot # mol: 1608

Molecule Type KR
-------------------
Number: 857 ;
Density: 0.636957 g/ml

Molecule Type C2P
-------------------
Number: 751 ;
Density: 0.200294 g/ml

Energy (in K): total: -1.23993e+06

Displace (Box 0) -- tries: 147890; # Accept: 73607; % Accept : 49.7715; Max Amt.: 0.646588
Rotate (Box 0) -- tries: 9878; # Accept: 5162; % Accept : 52.2575; Max Amt.: 2.1126
Molecule Transfer (Box 0 -> Box 1) -- tries: 40222; # Accept: 16186; % Accept : 40.2417
Volume Transfer (Box 0 -> Box 1) -- tries: 1917; # Accept: 910; % Accept : 47.47; Max Amt.: 975.689


------------------------
--    ==========      --
--  === BOX 1  ===    --
--    ==========      --
------------------------

Volume: 247797 A^3
Tot # mol: 392

Molecule Type KR
-------------------
Number: 335 ;
Density: 0.188118 g/ml

Molecule Type C2P
-------------------
Number: 57 ;
Density: 0.0114858 g/ml

Energy (in K): total: -47625.2

Displace (Box 1) -- tries: 147796; # Accept: 73935; % Accept : 50.025; Max Amt.: 7.42462
Rotate (Box 1) -- tries: 10037; # Accept: 7230; % Accept : 72.0335; Max Amt.: 3.14159
Molecule Transfer (Box 1 -> Box 0) -- tries: 40279; # Accept: 16794; % Accept : 41.6942
Volume Transfer (Box 1 -> Box 0) -- tries: 1981; # Accept: 1021; % Accept : 51.5396; Max Amt.: 14084.2

------------------------
--    ==========      --
--  === SYSTEM ===    --
--    ==========      --
------------------------

Energy (in K): total: -1.28756e+06

Steps/sec. : 12121.2
STEP 499999 of 1000000 (49.9999% done)


------------------------
--    ==========      --
--  === BOX 0  ===    --
--    ==========      --
------------------------

Volume: 176719 A^3
Tot # mol: 1560

Molecule Type KR
-------------------
Number: 833 ;
Density: 0.655911 g/ml

Molecule Type C2P
-------------------
Number: 727 ;
Density: 0.205416 g/ml

Energy (in K): total: -1.25026e+06

Displace (Box 0) -- tries: 184818; # Accept: 92098; % Accept : 49.8317; Max Amt.: 0.609945
Rotate (Box 0) -- tries: 12412; # Accept: 6465; % Accept : 52.0867; Max Amt.: 1.70085
Molecule Transfer (Box 0 -> Box 1) -- tries: 50283; # Accept: 19220; % Accept : 38.2237
Volume Transfer (Box 0 -> Box 1) -- tries: 2411; # Accept: 1147; % Accept : 47.5736; Max Amt.: 6340.35


------------------------
--    ==========      --
--  === BOX 1  ===    --
--    ==========      --
------------------------

Volume: 306448 A^3
Tot # mol: 440

Molecule Type KR
-------------------
Number: 359 ;
Density: 0.163012 g/ml

Molecule Type C2P
-------------------
Number: 81 ;
Density: 0.0131981 g/ml

Energy (in K): total: -52116.1

Displace (Box 1) -- tries: 184788; # Accept: 92482; % Accept : 50.0476; Max Amt.: 8.23913
Rotate (Box 1) -- tries: 12580; # Accept: 9176; % Accept : 72.9412; Max Amt.: 3.14159
Molecule Transfer (Box 1 -> Box 0) -- tries: 50251; # Accept: 19780; % Accept : 39.3624
Volume Transfer (Box 1 -> Box 0) -- tries: 2457; # Accept: 1254; % Accept : 51.0379; Max Amt.: 23744.9

------------------------
--    ==========      --
--  === SYSTEM ===    --
--    ==========      --
------------------------

Energy (in K): total: -1.30238e+06

Steps/sec. : 11890.6
STEP 599999 of 1000000 (59.9999% done)


------------------------
--    ==========      --
--  === BOX 0  ===    --
--    ==========      --
------------------------

Volume: 170196 A^3
Tot # mol: 1561

Molecule Type KR
-------------------
Number: 840 ;
Density: 0.686772 g/ml

Molecule Type C2P
-------------------
Number: 721 ;
Density: 0.211528 g/ml

Energy (in K): total: -1.2804e+06

Displace (Box 0) -- tries: 221761; # Accept: 110603; % Accept : 49.8749; Max Amt.: 0.585089
Rotate (Box 0) -- tries: 14906; # Accept: 7745; % Accept : 51.9589; Max Amt.: 1.44611
Molecule Transfer (Box 0 -> Box 1) -- tries: 60360; # Accept: 21927; % Accept : 36.327
Volume Transfer (Box 0 -> Box 1) -- tries: 2912; # Accept: 1394; % Accept : 47.8709; Max Amt.: 1072.72


------------------------
--    ==========      --
--  === BOX 1  ===    --
--    ==========      --
------------------------

Volume: 276548 A^3
Tot # mol: 439

Molecule Type KR
-------------------
Number: 352 ;
Density: 0.177115 g/ml

Molecule Type C2P
-------------------
Number: 87 ;
Density: 0.0157084 g/ml

Energy (in K): total: -58989.7

Displace (Box 1) -- tries: 221787; # Accept: 110939; % Accept : 50.0205; Max Amt.: 5.00735
Rotate (Box 1) -- tries: 15077; # Accept: 10966; % Accept : 72.7333; Max Amt.: 3.14159
Molecule Transfer (Box 1 -> Box 0) -- tries: 60251; # Accept: 22488; % Accept : 37.3239
Volume Transfer (Box 1 -> Box 0) -- tries: 2946; # Accept: 1501; % Accept : 50.9504; Max Amt.: 17583.2

------------------------
--    ==========      --
--  === SYSTEM ===    --
--    ==========      --
------------------------

Energy (in K): total: -1.33939e+06

Steps/sec. : 11655
STEP 699999 of 1000000 (69.9999% done)


------------------------
--    ==========      --
--  === BOX 0  ===    --
--    ==========      --
------------------------

Volume: 169905 A^3
Tot # mol: 1566

Molecule Type KR
-------------------
Number: 845 ;
Density: 0.692042 g/ml

Molecule Type C2P
-------------------
Number: 721 ;
Density: 0.21189 g/ml

Energy (in K): total: -1.26024e+06

Displace (Box 0) -- tries: 258837; # Accept: 129186; % Accept : 49.9102; Max Amt.: 0.600162
Rotate (Box 0) -- tries: 17357; # Accept: 9028; % Accept : 52.0136; Max Amt.: 2.1618
Molecule Transfer (Box 0 -> Box 1) -- tries: 70292; # Accept: 24451; % Accept : 34.7849
Volume Transfer (Box 0 -> Box 1) -- tries: 3411; # Accept: 1620; % Accept : 47.4934; Max Amt.: 1730.81


------------------------
--    ==========      --
--  === BOX 1  ===    --
--    ==========      --
------------------------

Volume: 267203 A^3
Tot # mol: 434

Molecule Type KR
-------------------
Number: 347 ;
Density: 0.180705 g/ml

Molecule Type C2P
-------------------
Number: 87 ;
Density: 0.0162577 g/ml

Energy (in K): total: -58920.7

Displace (Box 1) -- tries: 258887; # Accept: 129470; % Accept : 50.0102; Max Amt.: 3.70306
Rotate (Box 1) -- tries: 17581; # Accept: 12715; % Accept : 72.3224; Max Amt.: 3.14159
Molecule Transfer (Box 1 -> Box 0) -- tries: 70180; # Accept: 25017; % Accept : 35.6469
Volume Transfer (Box 1 -> Box 0) -- tries: 3455; # Accept: 1760; % Accept : 50.9407; Max Amt.: 34423

------------------------
--    ==========      --
--  === SYSTEM ===    --
--    ==========      --
------------------------

Energy (in K): total: -1.31917e+06

Steps/sec. : 11778.6
STEP 799999 of 1000000 (79.9999% done)


------------------------
--    ==========      --
--  === BOX 0  ===    --
--    ==========      --
------------------------

Volume: 165701 A^3
Tot # mol: 1532

Molecule Type KR
-------------------
Number: 797 ;
Density: 0.669291 g/ml

Molecule Type C2P
-------------------
Number: 735 ;
Density: 0.221485 g/ml

Energy (in K): total: -1.27733e+06

Displace (Box 0) -- tries: 295785; # Accept: 147707; % Accept : 49.9373; Max Amt.: 0.626526
Rotate (Box 0) -- tries: 19865; # Accept: 10302; % Accept : 51.8601; Max Amt.: 2.77914
Molecule Transfer (Box 0 -> Box 1) -- tries: 80215; # Accept: 27093; % Accept : 33.7755
Volume Transfer (Box 0 -> Box 1) -- tries: 3906; # Accept: 1850; % Accept : 47.363; Max Amt.: 4024.3


------------------------
--    ==========      --
--  === BOX 1  ===    --
--    ==========      --
------------------------

Volume: 321386 A^3
Tot # mol: 468

Molecule Type KR
-------------------
Number: 395 ;
Density: 0.171023 g/ml

Molecule Type C2P
-------------------
Number: 73 ;
Density: 0.0113417 g/ml

Energy (in K): total: -52168.1

Displace (Box 1) -- tries: 296049; # Accept: 148231; % Accept : 50.0698; Max Amt.: 7.17553
Rotate (Box 1) -- tries: 20132; # Accept: 14509; % Accept : 72.0693; Max Amt.: 3.14159
Molecule Transfer (Box 1 -> Box 0) -- tries: 80119; # Accept: 27625; % Accept : 34.48
Volume Transfer (Box 1 -> Box 0) -- tries: 3929; # Accept: 1997; % Accept : 50.8272; Max Amt.: 13588.3

------------------------
--    ==========      --
--  === SYSTEM ===    --
--    ==========      --
------------------------

Energy (in K): total: -1.3295e+06

Steps/sec. : 12033.7
STEP 899999 of 1000000 (89.9999% done)


------------------------
--    ==========      --
--  === BOX 0  ===    --
--    ==========      --
------------------------

Volume: 163644 A^3
Tot # mol: 1509

Molecule Type KR
-------------------
Number: 790 ;
Density: 0.671755 g/ml

Molecule Type C2P
-------------------
Number: 719 ;
Density: 0.219388 g/ml

Energy (in K): total: -1.25144e+06

Displace (Box 0) -- tries: 332608; # Accept: 166145; % Accept : 49.9522; Max Amt.: 0.581612
Rotate (Box 0) -- tries: 22371; # Accept: 11599; % Accept : 51.8484; Max Amt.: 1.62325
Molecule Transfer (Box 0 -> Box 1) -- tries: 90351; # Accept: 29647; % Accept : 32.8131
Volume Transfer (Box 0 -> Box 1) -- tries: 4398; # Accept: 2106; % Accept : 47.8854; Max Amt.: 1264.47


------------------------
--    ==========      --
--  === BOX 1  ===    --
--    ==========      --
------------------------

Volume: 315055 A^3
Tot # mol: 491

Molecule Type KR
-------------------
Number: 402 ;
Density: 0.177551 g/ml

Molecule Type C2P
-------------------
Number: 89 ;
Density: 0.0141054 g/ml

Energy (in K): total: -64369.4

Displace (Box 1) -- tries: 333054; # Accept: 166748; % Accept : 50.0664; Max Amt.: 5.87623
Rotate (Box 1) -- tries: 22621; # Accept: 16305; % Accept : 72.079; Max Amt.: 3.14159
Molecule Transfer (Box 1 -> Box 0) -- tries: 90180; # Accept: 30156; % Accept : 33.4398
Volume Transfer (Box 1 -> Box 0) -- tries: 4417; # Accept: 2237; % Accept : 50.6452; Max Amt.: 38299.8

------------------------
--    ==========      --
--  === SYSTEM ===    --
--    ==========      --
------------------------

Energy (in K): total: -1.31581e+06

Steps/sec. : 12195.1
STEP 999999 of 1000000 (99.9999% done)


------------------------
--    ==========      --
--  === BOX 0  ===    --
--    ==========      --
------------------------

Volume: 158448 A^3
Tot # mol: 1333

Molecule Type KR
-------------------
Number: 665 ;
Density: 0.584005 g/ml

Molecule Type C2P
-------------------
Number: 668 ;
Density: 0.210509 g/ml

Energy (in K): total: -1.03875e+06

Displace (Box 0) -- tries: 369409; # Accept: 184609; % Accept : 49.9741; Max Amt.: 0.651503
Rotate (Box 0) -- tries: 24867; # Accept: 12873; % Accept : 51.7674; Max Amt.: 2.35827
Molecule Transfer (Box 0 -> Box 1) -- tries: 100570; # Accept: 32555; % Accept : 32.3705
Volume Transfer (Box 0 -> Box 1) -- tries: 4882; # Accept: 2351; % Accept : 48.1565; Max Amt.: 1564.39


------------------------
--    ==========      --
--  === BOX 1  ===    --
--    ==========      --
------------------------

Volume: 402982 A^3
Tot # mol: 667

Molecule Type KR
-------------------
Number: 527 ;
Density: 0.181973 g/ml

Molecule Type C2P
-------------------
Number: 140 ;
Density: 0.017347 g/ml

Energy (in K): total: -89489.8

Displace (Box 1) -- tries: 370054; # Accept: 185283; % Accept : 50.0692; Max Amt.: 5.31367
Rotate (Box 1) -- tries: 25068; # Accept: 18140; % Accept : 72.3632; Max Amt.: 3.14159
Molecule Transfer (Box 1 -> Box 0) -- tries: 100210; # Accept: 32888; % Accept : 32.8191
Volume Transfer (Box 1 -> Box 0) -- tries: 4940; # Accept: 2510; % Accept : 50.8097; Max Amt.: 24588.1

------------------------
--    ==========      --
--  === SYSTEM ===    --
--    ==========      --
------------------------

Energy (in K): total: -1.12824e+06

Simulation Time (total): 77.29sec.
