GOMC Serial Version 0.97
Started at: Fri Aug 21 18:57:24 2015
On hostname: potoff33.eng.wayne.edu

------------------------------------------------------
This code was compiled to support the grand canonical ensemble.
------------------------------------------------------

Reading from CHARMM-Style Parameter File file: ./Par_TraPPE_Alkanes_CHARMM.inp

Finished reading CHARMM-Style Parameter File file: ./Par_TraPPE_Alkanes_CHARMM.inp

Reading from Box 1 PDB coordinate file file: ./STEP3_START_ISB_liq_BOX_0.pdb

Finished reading Box 1 PDB coordinate file file: ./STEP3_START_ISB_liq_BOX_0.pdb

Reading from Box 2 PDB coordinate file file: ./STEP3_START_ISB_reservoir_BOX_1.pdb

Finished reading Box 2 PDB coordinate file file: ./STEP3_START_ISB_reservoir_BOX_1.pdb

REMARINDER! 1-4 Interaction and more is OFF

Min. Box Size: 8000.1
STARTING SIMULATION!!


------------------------
--    ==========      --
--  === BOX 0  ===    --
--    ==========      --
------------------------

Volume: 27000 A^3
Tot # mol: 210

Molecule Type ISB
-------------------
Number: 210 ;
Density: 0.750689 g/ml

Energy (in K): total: 4.8836e+07


------------------------
--    ==========      --
--  === BOX 1  ===    --
--    ==========      --
------------------------

Volume: 27000 A^3
Tot # mol: 600

Molecule Type ISB
-------------------
Number: 600 ;
Density: 2.14483 g/ml

Energy (in K): total: 109689

------------------------
--    ==========      --
--  === SYSTEM ===    --
--    ==========      --
------------------------

Energy (in K): total: 4.89457e+07

Printed combined psf to file ISB_380_00_K_u_2970_r1a.psf
STEP 99999 of 1000000 (9.9999% done)


------------------------
--    ==========      --
--  === BOX 0  ===    --
--    ==========      --
------------------------

Volume: 27000 A^3
Tot # mol: 122

Molecule Type ISB
-------------------
Number: 122 ;
Density: 0.436115 g/ml

Energy (in K): total: -115942

Displace (Box 0) -- tries: 20119; # Accept: 9925; % Accept : 49.3315; Max Amt.: 0.521162
Rotate (Box 0) -- tries: 9916; # Accept: 5093; % Accept : 51.3614; Max Amt.: 1.9734
Deletion (from Box 0) -- tries: 34883; # Accept: 5879; % Accept : 16.8535


------------------------
--    ==========      --
--  === BOX 1  ===    --
--    ==========      --
------------------------

Volume: 27000 A^3
Tot # mol: 688

Molecule Type ISB
-------------------
Number: 688 ;
Density: 2.4594 g/ml

Energy (in K): total: 386041

Insertion (into Box 0) -- tries: 35082; # Accept: 5791; % Accept : 16.507

------------------------
--    ==========      --
--  === SYSTEM ===    --
--    ==========      --
------------------------

Energy (in K): total: 270100

Steps/sec. : 2714.44
STEP 199999 of 1000000 (19.9999% done)


------------------------
--    ==========      --
--  === BOX 0  ===    --
--    ==========      --
------------------------

Volume: 27000 A^3
Tot # mol: 126

Molecule Type ISB
-------------------
Number: 126 ;
Density: 0.450414 g/ml

Energy (in K): total: -121038

Displace (Box 0) -- tries: 40282; # Accept: 20053; % Accept : 49.7815; Max Amt.: 0.580324
Rotate (Box 0) -- tries: 19895; # Accept: 10116; % Accept : 50.8469; Max Amt.: 1.21421
Deletion (from Box 0) -- tries: 69836; # Accept: 11315; % Accept : 16.2022


------------------------
--    ==========      --
--  === BOX 1  ===    --
--    ==========      --
------------------------

Volume: 27000 A^3
Tot # mol: 684

Molecule Type ISB
-------------------
Number: 684 ;
Density: 2.4451 g/ml

Energy (in K): total: 400792

Insertion (into Box 0) -- tries: 69987; # Accept: 11231; % Accept : 16.0473

------------------------
--    ==========      --
--  === SYSTEM ===    --
--    ==========      --
------------------------

Energy (in K): total: 279754

Steps/sec. : 2690.34
STEP 299999 of 1000000 (29.9999% done)


------------------------
--    ==========      --
--  === BOX 0  ===    --
--    ==========      --
------------------------

Volume: 27000 A^3
Tot # mol: 122

Molecule Type ISB
-------------------
Number: 122 ;
Density: 0.436115 g/ml

Energy (in K): total: -102678

Displace (Box 0) -- tries: 60322; # Accept: 30118; % Accept : 49.9287; Max Amt.: 0.598863
Rotate (Box 0) -- tries: 29765; # Accept: 15105; % Accept : 50.7475; Max Amt.: 1.91763
Deletion (from Box 0) -- tries: 104748; # Accept: 16455; % Accept : 15.7091


------------------------
--    ==========      --
--  === BOX 1  ===    --
--    ==========      --
------------------------

Volume: 27000 A^3
Tot # mol: 688

Molecule Type ISB
-------------------
Number: 688 ;
Density: 2.4594 g/ml

Energy (in K): total: 391733

Insertion (into Box 0) -- tries: 105165; # Accept: 16367; % Accept : 15.5632

------------------------
--    ==========      --
--  === SYSTEM ===    --
--    ==========      --
------------------------

Energy (in K): total: 289056

Steps/sec. : 2654.63
STEP 399999 of 1000000 (39.9999% done)


------------------------
--    ==========      --
--  === BOX 0  ===    --
--    ==========      --
------------------------

Volume: 27000 A^3
Tot # mol: 129

Molecule Type ISB
-------------------
Number: 129 ;
Density: 0.461138 g/ml

Energy (in K): total: -119874

Displace (Box 0) -- tries: 80365; # Accept: 40186; % Accept : 50.0044; Max Amt.: 0.612385
Rotate (Box 0) -- tries: 39634; # Accept: 20063; % Accept : 50.6207; Max Amt.: 1.5525
Deletion (from Box 0) -- tries: 139843; # Accept: 21357; % Accept : 15.2721


------------------------
--    ==========      --
--  === BOX 1  ===    --
--    ==========      --
------------------------

Volume: 27000 A^3
Tot # mol: 681

Molecule Type ISB
-------------------
Number: 681 ;
Density: 2.43438 g/ml

Energy (in K): total: 401558

Insertion (into Box 0) -- tries: 140158; # Accept: 21276; % Accept : 15.18

------------------------
--    ==========      --
--  === SYSTEM ===    --
--    ==========      --
------------------------

Energy (in K): total: 281685

Steps/sec. : 2628.12
STEP 499999 of 1000000 (49.9999% done)


------------------------
--    ==========      --
--  === BOX 0  ===    --
--    ==========      --
------------------------

Volume: 27000 A^3
Tot # mol: 116

Molecule Type ISB
-------------------
Number: 116 ;
Density: 0.414666 g/ml

Energy (in K): total: -92242.8

Displace (Box 0) -- tries: 100310; # Accept: 50216; % Accept : 50.0608; Max Amt.: 0.635374
Rotate (Box 0) -- tries: 49708; # Accept: 25137; % Accept : 50.5693; Max Amt.: 1.82079
Deletion (from Box 0) -- tries: 174825; # Accept: 26756; % Accept : 15.3044


------------------------
--    ==========      --
--  === BOX 1  ===    --
--    ==========      --
------------------------

Volume: 27000 A^3
Tot # mol: 694

Molecule Type ISB
-------------------
Number: 694 ;
Density: 2.48085 g/ml

Energy (in K): total: 411281

Insertion (into Box 0) -- tries: 175157; # Accept: 26662; % Accept : 15.2218

------------------------
--    ==========      --
--  === SYSTEM ===    --
--    ==========      --
------------------------

Energy (in K): total: 319038

Steps/sec. : 2680.97
STEP 599999 of 1000000 (59.9999% done)


------------------------
--    ==========      --
--  === BOX 0  ===    --
--    ==========      --
------------------------

Volume: 27000 A^3
Tot # mol: 130

Molecule Type ISB
-------------------
Number: 130 ;
Density: 0.464712 g/ml

Energy (in K): total: -116055

Displace (Box 0) -- tries: 120522; # Accept: 60396; % Accept : 50.112; Max Amt.: 0.640306
Rotate (Box 0) -- tries: 59735; # Accept: 30203; % Accept : 50.5616; Max Amt.: 2.09654
Deletion (from Box 0) -- tries: 209770; # Accept: 32096; % Accept : 15.3006


------------------------
--    ==========      --
--  === BOX 1  ===    --
--    ==========      --
------------------------

Volume: 27000 A^3
Tot # mol: 680

Molecule Type ISB
-------------------
Number: 680 ;
Density: 2.4308 g/ml

Energy (in K): total: 399748

Insertion (into Box 0) -- tries: 209973; # Accept: 32016; % Accept : 15.2477

------------------------
--    ==========      --
--  === SYSTEM ===    --
--    ==========      --
------------------------

Energy (in K): total: 283693

Steps/sec. : 2677.38
STEP 699999 of 1000000 (69.9999% done)


------------------------
--    ==========      --
--  === BOX 0  ===    --
--    ==========      --
------------------------

Volume: 27000 A^3
Tot # mol: 120

Molecule Type ISB
-------------------
Number: 120 ;
Density: 0.428965 g/ml

Energy (in K): total: -104076

Displace (Box 0) -- tries: 140620; # Accept: 70480; % Accept : 50.1209; Max Amt.: 0.54018
Rotate (Box 0) -- tries: 69990; # Accept: 35382; % Accept : 50.5529; Max Amt.: 2.0608
Deletion (from Box 0) -- tries: 244445; # Accept: 37749; % Accept : 15.4427


------------------------
--    ==========      --
--  === BOX 1  ===    --
--    ==========      --
------------------------

Volume: 27000 A^3
Tot # mol: 690

Molecule Type ISB
-------------------
Number: 690 ;
Density: 2.46655 g/ml

Energy (in K): total: 408776

Insertion (into Box 0) -- tries: 244945; # Accept: 37659; % Accept : 15.3745

------------------------
--    ==========      --
--  === SYSTEM ===    --
--    ==========      --
------------------------

Energy (in K): total: 304700

Steps/sec. : 2721.83
STEP 799999 of 1000000 (79.9999% done)


------------------------
--    ==========      --
--  === BOX 0  ===    --
--    ==========      --
------------------------

Volume: 27000 A^3
Tot # mol: 128

Molecule Type ISB
-------------------
Number: 128 ;
Density: 0.457563 g/ml

Energy (in K): total: -119145

Displace (Box 0) -- tries: 160752; # Accept: 80647; % Accept : 50.1686; Max Amt.: 0.578812
Rotate (Box 0) -- tries: 80087; # Accept: 40446; % Accept : 50.5026; Max Amt.: 1.43849
Deletion (from Box 0) -- tries: 279105; # Accept: 42862; % Accept : 15.3569


------------------------
--    ==========      --
--  === BOX 1  ===    --
--    ==========      --
------------------------

Volume: 27000 A^3
Tot # mol: 682

Molecule Type ISB
-------------------
Number: 682 ;
Density: 2.43795 g/ml

Energy (in K): total: 411308

Insertion (into Box 0) -- tries: 280056; # Accept: 42780; % Accept : 15.2755

------------------------
--    ==========      --
--  === SYSTEM ===    --
--    ==========      --
------------------------

Energy (in K): total: 292163

Steps/sec. : 2658.16
STEP 899999 of 1000000 (89.9999% done)


------------------------
--    ==========      --
--  === BOX 0  ===    --
--    ==========      --
------------------------

Volume: 27000 A^3
Tot # mol: 124

Molecule Type ISB
-------------------
Number: 124 ;
Density: 0.443264 g/ml

Energy (in K): total: -112530

Displace (Box 0) -- tries: 180706; # Accept: 90712; % Accept : 50.1987; Max Amt.: 0.595963
Rotate (Box 0) -- tries: 90013; # Accept: 45454; % Accept : 50.4972; Max Amt.: 1.91556
Deletion (from Box 0) -- tries: 314127; # Accept: 47926; % Accept : 15.2569


------------------------
--    ==========      --
--  === BOX 1  ===    --
--    ==========      --
------------------------

Volume: 27000 A^3
Tot # mol: 686

Molecule Type ISB
-------------------
Number: 686 ;
Density: 2.45225 g/ml

Energy (in K): total: 419514

Insertion (into Box 0) -- tries: 315154; # Accept: 47840; % Accept : 15.1799

------------------------
--    ==========      --
--  === SYSTEM ===    --
--    ==========      --
------------------------

Energy (in K): total: 306985

Steps/sec. : 2654.63
STEP 999999 of 1000000 (99.9999% done)


------------------------
--    ==========      --
--  === BOX 0  ===    --
--    ==========      --
------------------------

Volume: 27000 A^3
Tot # mol: 113

Molecule Type ISB
-------------------
Number: 113 ;
Density: 0.403942 g/ml

Energy (in K): total: -89629

Displace (Box 0) -- tries: 200705; # Accept: 100767; % Accept : 50.2065; Max Amt.: 0.642633
Rotate (Box 0) -- tries: 100025; # Accept: 50499; % Accept : 50.4864; Max Amt.: 1.76491
Deletion (from Box 0) -- tries: 349107; # Accept: 52978; % Accept : 15.1753


------------------------
--    ==========      --
--  === BOX 1  ===    --
--    ==========      --
------------------------

Volume: 27000 A^3
Tot # mol: 697

Molecule Type ISB
-------------------
Number: 697 ;
Density: 2.49157 g/ml

Energy (in K): total: 419168

Insertion (into Box 0) -- tries: 350163; # Accept: 52881; % Accept : 15.1018

------------------------
--    ==========      --
--  === SYSTEM ===    --
--    ==========      --
------------------------

Energy (in K): total: 329539

Simulation Time (total): 374.2sec.
