GOMC Serial Version 0.97
Started at: Fri Aug 21 18:32:21 2015
On hostname: potoff40.eng.wayne.edu

------------------------------------------------------
This code was compiled to support the grand canonical ensemble.
------------------------------------------------------

Reading from Exotic Parameter File file: ./Par_Vrabec01_Noble_Gases_Exotic.inp

Finished reading Exotic Parameter File file: ./Par_Vrabec01_Noble_Gases_Exotic.inp

Reading from Box 1 PDB coordinate file file: ./STEP3_START_AR_vap_BOX_0.pdb

Finished reading Box 1 PDB coordinate file file: ./STEP3_START_AR_vap_BOX_0.pdb

Reading from Box 2 PDB coordinate file file: ./STEP3_START_AR_reservoir_BOX_1.pdb

Finished reading Box 2 PDB coordinate file file: ./STEP3_START_AR_reservoir_BOX_1.pdb

REMARINDER! 1-4 Interaction and more is OFF

Min. Box Size: 8000.1
STARTING SIMULATION!!


------------------------
--    ==========      --
--  === BOX 0  ===    --
--    ==========      --
------------------------

Volume: 15625 A^3
Tot # mol: 2

Molecule Type AR
-------------------
Number: 2 ;
Density: 0.00849091 g/ml

Energy (in K): total: -35.6932


------------------------
--    ==========      --
--  === BOX 1  ===    --
--    ==========      --
------------------------

Volume: 15625 A^3
Tot # mol: 600

Molecule Type AR
-------------------
Number: 600 ;
Density: 2.54727 g/ml

Energy (in K): total: 0

------------------------
--    ==========      --
--  === SYSTEM ===    --
--    ==========      --
------------------------

Energy (in K): total: -35.6932

Printed combined psf to file AR_150_00_K_u_968_r1a.psf
STEP 99999 of 1000000 (9.9999% done)


------------------------
--    ==========      --
--  === BOX 0  ===    --
--    ==========      --
------------------------

Volume: 15625 A^3
Tot # mol: 208

Molecule Type AR
-------------------
Number: 208 ;
Density: 0.883054 g/ml

Energy (in K): total: -83821.6

Displace (Box 0) -- tries: 30029; # Accept: 14820; % Accept : 49.3523; Max Amt.: 0.716679
Deletion (from Box 0) -- tries: 35037; # Accept: 23950; % Accept : 68.3563


------------------------
--    ==========      --
--  === BOX 1  ===    --
--    ==========      --
------------------------

Volume: 15625 A^3
Tot # mol: 394

Molecule Type AR
-------------------
Number: 394 ;
Density: 1.67271 g/ml

Energy (in K): total: 0

Insertion (into Box 0) -- tries: 34934; # Accept: 24156; % Accept : 69.1475

------------------------
--    ==========      --
--  === SYSTEM ===    --
--    ==========      --
------------------------

Energy (in K): total: -83821.6

Steps/sec. : 24630.5
STEP 199999 of 1000000 (19.9999% done)


------------------------
--    ==========      --
--  === BOX 0  ===    --
--    ==========      --
------------------------

Volume: 15625 A^3
Tot # mol: 180

Molecule Type AR
-------------------
Number: 180 ;
Density: 0.764182 g/ml

Energy (in K): total: -67995.1

Displace (Box 0) -- tries: 60032; # Accept: 29884; % Accept : 49.7801; Max Amt.: 0.814279
Deletion (from Box 0) -- tries: 69970; # Accept: 38529; % Accept : 55.065


------------------------
--    ==========      --
--  === BOX 1  ===    --
--    ==========      --
------------------------

Volume: 15625 A^3
Tot # mol: 422

Molecule Type AR
-------------------
Number: 422 ;
Density: 1.79158 g/ml

Energy (in K): total: 0

Insertion (into Box 0) -- tries: 69998; # Accept: 38707; % Accept : 55.2973

------------------------
--    ==========      --
--  === SYSTEM ===    --
--    ==========      --
------------------------

Energy (in K): total: -67995.1

Steps/sec. : 13927.6
STEP 299999 of 1000000 (29.9999% done)


------------------------
--    ==========      --
--  === BOX 0  ===    --
--    ==========      --
------------------------

Volume: 15625 A^3
Tot # mol: 219

Molecule Type AR
-------------------
Number: 219 ;
Density: 0.929754 g/ml

Energy (in K): total: -90671.6

Displace (Box 0) -- tries: 89982; # Accept: 44878; % Accept : 49.8744; Max Amt.: 0.553554
Deletion (from Box 0) -- tries: 105035; # Accept: 53623; % Accept : 51.0525


------------------------
--    ==========      --
--  === BOX 1  ===    --
--    ==========      --
------------------------

Volume: 15625 A^3
Tot # mol: 383

Molecule Type AR
-------------------
Number: 383 ;
Density: 1.62601 g/ml

Energy (in K): total: 0

Insertion (into Box 0) -- tries: 104983; # Accept: 53840; % Accept : 51.2845

------------------------
--    ==========      --
--  === SYSTEM ===    --
--    ==========      --
------------------------

Energy (in K): total: -90671.6

Steps/sec. : 14224.8
STEP 399999 of 1000000 (39.9999% done)


------------------------
--    ==========      --
--  === BOX 0  ===    --
--    ==========      --
------------------------

Volume: 15625 A^3
Tot # mol: 178

Molecule Type AR
-------------------
Number: 178 ;
Density: 0.755691 g/ml

Energy (in K): total: -62868.7

Displace (Box 0) -- tries: 119974; # Accept: 60028; % Accept : 50.0342; Max Amt.: 0.86551
Deletion (from Box 0) -- tries: 139915; # Accept: 71005; % Accept : 50.7487


------------------------
--    ==========      --
--  === BOX 1  ===    --
--    ==========      --
------------------------

Volume: 15625 A^3
Tot # mol: 424

Molecule Type AR
-------------------
Number: 424 ;
Density: 1.80007 g/ml

Energy (in K): total: 0

Insertion (into Box 0) -- tries: 140111; # Accept: 71181; % Accept : 50.8033

------------------------
--    ==========      --
--  === SYSTEM ===    --
--    ==========      --
------------------------

Energy (in K): total: -62868.7

Steps/sec. : 15649.5
STEP 499999 of 1000000 (49.9999% done)


------------------------
--    ==========      --
--  === BOX 0  ===    --
--    ==========      --
------------------------

Volume: 15625 A^3
Tot # mol: 113

Molecule Type AR
-------------------
Number: 113 ;
Density: 0.479736 g/ml

Energy (in K): total: -25120.2

Displace (Box 0) -- tries: 149993; # Accept: 75205; % Accept : 50.139; Max Amt.: 1.06525
Deletion (from Box 0) -- tries: 175048; # Accept: 95448; % Accept : 54.5268


------------------------
--    ==========      --
--  === BOX 1  ===    --
--    ==========      --
------------------------

Volume: 15625 A^3
Tot # mol: 489

Molecule Type AR
-------------------
Number: 489 ;
Density: 2.07603 g/ml

Energy (in K): total: 0

Insertion (into Box 0) -- tries: 174959; # Accept: 95559; % Accept : 54.6179

------------------------
--    ==========      --
--  === SYSTEM ===    --
--    ==========      --
------------------------

Energy (in K): total: -25120.2

Steps/sec. : 24509.8
STEP 599999 of 1000000 (59.9999% done)


------------------------
--    ==========      --
--  === BOX 0  ===    --
--    ==========      --
------------------------

Volume: 15625 A^3
Tot # mol: 210

Molecule Type AR
-------------------
Number: 210 ;
Density: 0.891545 g/ml

Energy (in K): total: -88970.9

Displace (Box 0) -- tries: 180172; # Accept: 90276; % Accept : 50.1055; Max Amt.: 0.598681
Deletion (from Box 0) -- tries: 209747; # Accept: 110336; % Accept : 52.6043


------------------------
--    ==========      --
--  === BOX 1  ===    --
--    ==========      --
------------------------

Volume: 15625 A^3
Tot # mol: 392

Molecule Type AR
-------------------
Number: 392 ;
Density: 1.66422 g/ml

Energy (in K): total: 0

Insertion (into Box 0) -- tries: 210081; # Accept: 110544; % Accept : 52.6197

------------------------
--    ==========      --
--  === SYSTEM ===    --
--    ==========      --
------------------------

Energy (in K): total: -88970.9

Steps/sec. : 14245
STEP 699999 of 1000000 (69.9999% done)


------------------------
--    ==========      --
--  === BOX 0  ===    --
--    ==========      --
------------------------

Volume: 15625 A^3
Tot # mol: 179

Molecule Type AR
-------------------
Number: 179 ;
Density: 0.759936 g/ml

Energy (in K): total: -65107.1

Displace (Box 0) -- tries: 210063; # Accept: 105285; % Accept : 50.1207; Max Amt.: 0.673078
Deletion (from Box 0) -- tries: 244864; # Accept: 125204; % Accept : 51.1321


------------------------
--    ==========      --
--  === BOX 1  ===    --
--    ==========      --
------------------------

Volume: 15625 A^3
Tot # mol: 423

Molecule Type AR
-------------------
Number: 423 ;
Density: 1.79583 g/ml

Energy (in K): total: 0

Insertion (into Box 0) -- tries: 245073; # Accept: 125381; % Accept : 51.1607

------------------------
--    ==========      --
--  === SYSTEM ===    --
--    ==========      --
------------------------

Energy (in K): total: -65107.1

Steps/sec. : 13927.6
STEP 799999 of 1000000 (79.9999% done)


------------------------
--    ==========      --
--  === BOX 0  ===    --
--    ==========      --
------------------------

Volume: 15625 A^3
Tot # mol: 143

Molecule Type AR
-------------------
Number: 143 ;
Density: 0.6071 g/ml

Energy (in K): total: -40121

Displace (Box 0) -- tries: 240008; # Accept: 120424; % Accept : 50.175; Max Amt.: 1.09594
Deletion (from Box 0) -- tries: 279710; # Accept: 141786; % Accept : 50.6904


------------------------
--    ==========      --
--  === BOX 1  ===    --
--    ==========      --
------------------------

Volume: 15625 A^3
Tot # mol: 459

Molecule Type AR
-------------------
Number: 459 ;
Density: 1.94866 g/ml

Energy (in K): total: 0

Insertion (into Box 0) -- tries: 280282; # Accept: 141927; % Accept : 50.6372

------------------------
--    ==========      --
--  === SYSTEM ===    --
--    ==========      --
------------------------

Energy (in K): total: -40121

Steps/sec. : 15243.9
STEP 899999 of 1000000 (89.9999% done)


------------------------
--    ==========      --
--  === BOX 0  ===    --
--    ==========      --
------------------------

Volume: 15625 A^3
Tot # mol: 223

Molecule Type AR
-------------------
Number: 223 ;
Density: 0.946736 g/ml

Energy (in K): total: -97629.1

Displace (Box 0) -- tries: 269939; # Accept: 135350; % Accept : 50.141; Max Amt.: 0.662621
Deletion (from Box 0) -- tries: 314625; # Accept: 156164; % Accept : 49.635


------------------------
--    ==========      --
--  === BOX 1  ===    --
--    ==========      --
------------------------

Volume: 15625 A^3
Tot # mol: 379

Molecule Type AR
-------------------
Number: 379 ;
Density: 1.60903 g/ml

Energy (in K): total: 0

Insertion (into Box 0) -- tries: 315436; # Accept: 156385; % Accept : 49.5774

------------------------
--    ==========      --
--  === SYSTEM ===    --
--    ==========      --
------------------------

Energy (in K): total: -97629.1

Steps/sec. : 13850.4
STEP 999999 of 1000000 (99.9999% done)


------------------------
--    ==========      --
--  === BOX 0  ===    --
--    ==========      --
------------------------

Volume: 15625 A^3
Tot # mol: 186

Molecule Type AR
-------------------
Number: 186 ;
Density: 0.789654 g/ml

Energy (in K): total: -67248.7

Displace (Box 0) -- tries: 299988; # Accept: 150455; % Accept : 50.1537; Max Amt.: 0.772964
Deletion (from Box 0) -- tries: 349662; # Accept: 171108; % Accept : 48.9353


------------------------
--    ==========      --
--  === BOX 1  ===    --
--    ==========      --
------------------------

Volume: 15625 A^3
Tot # mol: 416

Molecule Type AR
-------------------
Number: 416 ;
Density: 1.76611 g/ml

Energy (in K): total: 0

Insertion (into Box 0) -- tries: 350350; # Accept: 171292; % Accept : 48.8917

------------------------
--    ==========      --
--  === SYSTEM ===    --
--    ==========      --
------------------------

Energy (in K): total: -67248.7

Simulation Time (total): 63.83sec.
