GOMC Serial Version 0.97
Started at: Sun Aug 23 21:00:06 2015
On hostname: potoff44.eng.wayne.edu

------------------------------------------------------
This code was compiled to support the Gibbs ensemble.
------------------------------------------------------

Warning: Output fluctuation has been set off, energy ouput for fluctuation will be ignored!
Warning: Output fluctuation has been set off, pressure ouput for fluctuation will be ignored!
Warning: Output fluctuation has been set off, molecule number ouput for fluctuation will be ignored!
Warning: Output fluctuation has been set off, accept angles ouput for fluctuation will be ignored!
Warning: Output fluctuation has been set off, density ouput for fluctuation will be ignored!
Reading from CHARMM-Style Parameter File file: ./Par_TraPPE_Alkanes_CHARMM.inp

Finished reading CHARMM-Style Parameter File file: ./Par_TraPPE_Alkanes_CHARMM.inp

Reading from Box 1 PDB coordinate file file: ./STEP3_START_DP1_sys_BOX_0.pdb

Finished reading Box 1 PDB coordinate file file: ./STEP3_START_DP1_sys_BOX_0.pdb

Reading from Box 2 PDB coordinate file file: ./STEP3_START_DP1_sys_BOX_1.pdb

Finished reading Box 2 PDB coordinate file file: ./STEP3_START_DP1_sys_BOX_1.pdb

Molecules in PSF:

Molecule Kind: DP1
Idx	name	type	charge	mass
0	C1	CT	0	12.011
1	C2	CH3	0	15.035
2	C3	CH3	0	15.035
3	C4	CH3	0	15.035
4	C5	CH2	0	14.027
5	C6	CH2	0	14.027
6	C7	CH3	0	15.035

Bonds:
[0 1] [0 2] [0 3] [0 4] [4 5] [5 6] 

Angles:
[0 4 5] [1 0 4] [1 0 3] [1 0 2] [2 0 4] [2 0 3] [3 0 4] [4 5 6] 

Dihedrals:
[0 4 5 6] [1 0 4 5] [2 0 4 5] [3 0 4 5] 

REMAINDER! 1-4 Interaction is OFF

Min. Box Size: 8000.1
STARTING SIMULATION!!


------------------------
--    ==========      --
--  === BOX 0  ===    --
--    ==========      --
------------------------

Volume: 575930 A^3
Tot # mol: 500

Molecule Type DP1
-------------------
Number: 500 ;
Density: 0.144457 g/ml

Energy (in K): total: 1.49971e+07


------------------------
--    ==========      --
--  === BOX 1  ===    --
--    ==========      --
------------------------

Volume: 2.03872e+06 A^3
Tot # mol: 500

Molecule Type DP1
-------------------
Number: 500 ;
Density: 0.0408085 g/ml

Energy (in K): total: 4.24932e+06

------------------------
--    ==========      --
--  === SYSTEM ===    --
--    ==========      --
------------------------

Energy (in K): total: 1.92464e+07

Printed combined psf to file 2_2_dimethylpentane_360_00_K.psf
STEP 99999 of 1000000 (9.9999% done)


------------------------
--    ==========      --
--  === BOX 0  ===    --
--    ==========      --
------------------------

Volume: 536930 A^3
Tot # mol: 307

Molecule Type DP1
-------------------
Number: 307 ;
Density: 0.0951391 g/ml

Energy (in K): total: 291756

Displace (Box 0) -- tries: 34383; # Accept: 16889; % Accept : 49.1202; Max Amt.: 1.69371
Rotate (Box 0) -- tries: 4968; # Accept: 2671; % Accept : 53.7641; Max Amt.: 3.14159
Molecule Transfer (Box 0 -> Box 1) -- tries: 9918; # Accept: 1676; % Accept : 16.8986
Volume Transfer (Box 0 -> Box 1) -- tries: 992; # Accept: 549; % Accept : 55.3427; Max Amt.: 21563.9


------------------------
--    ==========      --
--  === BOX 1  ===    --
--    ==========      --
------------------------

Volume: 2.07772e+06 A^3
Tot # mol: 693

Molecule Type DP1
-------------------
Number: 693 ;
Density: 0.0554989 g/ml

Energy (in K): total: 834281

Displace (Box 1) -- tries: 34838; # Accept: 17099; % Accept : 49.0815; Max Amt.: 3.74157
Rotate (Box 1) -- tries: 5063; # Accept: 3869; % Accept : 76.4171; Max Amt.: 3.14159
Molecule Transfer (Box 1 -> Box 0) -- tries: 9838; # Accept: 1483; % Accept : 15.0742
Volume Transfer (Box 1 -> Box 0) -- tries: 0; # Accept: 0; % Accept : -nan; Max Amt.: 500

------------------------
--    ==========      --
--  === SYSTEM ===    --
--    ==========      --
------------------------

Energy (in K): total: 1.12604e+06

Steps/sec. : 6082.73
STEP 199999 of 1000000 (19.9999% done)


------------------------
--    ==========      --
--  === BOX 0  ===    --
--    ==========      --
------------------------

Volume: 576720 A^3
Tot # mol: 321

Molecule Type DP1
-------------------
Number: 321 ;
Density: 0.0926144 g/ml

Energy (in K): total: 344747

Displace (Box 0) -- tries: 68758; # Accept: 34119; % Accept : 49.6219; Max Amt.: 1.80563
Rotate (Box 0) -- tries: 9888; # Accept: 5430; % Accept : 54.915; Max Amt.: 3.14159
Molecule Transfer (Box 0 -> Box 1) -- tries: 19901; # Accept: 3401; % Accept : 17.0896
Volume Transfer (Box 0 -> Box 1) -- tries: 2030; # Accept: 1100; % Accept : 54.1872; Max Amt.: 20586.1


------------------------
--    ==========      --
--  === BOX 1  ===    --
--    ==========      --
------------------------

Volume: 2.03793e+06 A^3
Tot # mol: 679

Molecule Type DP1
-------------------
Number: 679 ;
Density: 0.0554394 g/ml

Energy (in K): total: 894473

Displace (Box 1) -- tries: 69495; # Accept: 34432; % Accept : 49.546; Max Amt.: 3.3392
Rotate (Box 1) -- tries: 10025; # Accept: 7522; % Accept : 75.0324; Max Amt.: 3.14159
Molecule Transfer (Box 1 -> Box 0) -- tries: 19903; # Accept: 3222; % Accept : 16.1885
Volume Transfer (Box 1 -> Box 0) -- tries: 0; # Accept: 0; % Accept : -nan; Max Amt.: 500

------------------------
--    ==========      --
--  === SYSTEM ===    --
--    ==========      --
------------------------

Energy (in K): total: 1.23922e+06

Steps/sec. : 6234.41
STEP 299999 of 1000000 (29.9999% done)


------------------------
--    ==========      --
--  === BOX 0  ===    --
--    ==========      --
------------------------

Volume: 781904 A^3
Tot # mol: 300

Molecule Type DP1
-------------------
Number: 300 ;
Density: 0.063842 g/ml

Energy (in K): total: 395992

Displace (Box 0) -- tries: 103220; # Accept: 51491; % Accept : 49.8847; Max Amt.: 3.20985
Rotate (Box 0) -- tries: 14992; # Accept: 8298; % Accept : 55.3495; Max Amt.: 3.14159
Molecule Transfer (Box 0 -> Box 1) -- tries: 29920; # Accept: 5290; % Accept : 17.6805
Volume Transfer (Box 0 -> Box 1) -- tries: 3006; # Accept: 1625; % Accept : 54.0585; Max Amt.: 44656.9


------------------------
--    ==========      --
--  === BOX 1  ===    --
--    ==========      --
------------------------

Volume: 1.83275e+06 A^3
Tot # mol: 700

Molecule Type DP1
-------------------
Number: 700 ;
Density: 0.0635527 g/ml

Energy (in K): total: 960450

Displace (Box 1) -- tries: 103903; # Accept: 51614; % Accept : 49.6752; Max Amt.: 2.58316
Rotate (Box 1) -- tries: 15155; # Accept: 10824; % Accept : 71.422; Max Amt.: 3.14159
Molecule Transfer (Box 1 -> Box 0) -- tries: 29804; # Accept: 5090; % Accept : 17.0782
Volume Transfer (Box 1 -> Box 0) -- tries: 0; # Accept: 0; % Accept : -nan; Max Amt.: 500

------------------------
--    ==========      --
--  === SYSTEM ===    --
--    ==========      --
------------------------

Energy (in K): total: 1.35644e+06

Steps/sec. : 6934.81
STEP 399999 of 1000000 (39.9999% done)


------------------------
--    ==========      --
--  === BOX 0  ===    --
--    ==========      --
------------------------

Volume: 814696 A^3
Tot # mol: 332

Molecule Type DP1
-------------------
Number: 332 ;
Density: 0.067808 g/ml

Energy (in K): total: 408111

Displace (Box 0) -- tries: 137870; # Accept: 68808; % Accept : 49.9079; Max Amt.: 2.43108
Rotate (Box 0) -- tries: 20066; # Accept: 11426; % Accept : 56.9421; Max Amt.: 3.14159
Molecule Transfer (Box 0 -> Box 1) -- tries: 39869; # Accept: 7095; % Accept : 17.7958
Volume Transfer (Box 0 -> Box 1) -- tries: 4029; # Accept: 2188; % Accept : 54.3063; Max Amt.: 22296.1


------------------------
--    ==========      --
--  === BOX 1  ===    --
--    ==========      --
------------------------

Volume: 1.79996e+06 A^3
Tot # mol: 668

Molecule Type DP1
-------------------
Number: 668 ;
Density: 0.0617523 g/ml

Energy (in K): total: 921447

Displace (Box 1) -- tries: 138265; # Accept: 68827; % Accept : 49.779; Max Amt.: 2.56084
Rotate (Box 1) -- tries: 20216; # Accept: 14217; % Accept : 70.3255; Max Amt.: 3.14159
Molecule Transfer (Box 1 -> Box 0) -- tries: 39685; # Accept: 6927; % Accept : 17.455
Volume Transfer (Box 1 -> Box 0) -- tries: 0; # Accept: 0; % Accept : -nan; Max Amt.: 500

------------------------
--    ==========      --
--  === SYSTEM ===    --
--    ==========      --
------------------------

Energy (in K): total: 1.32956e+06

Steps/sec. : 6877.58
STEP 499999 of 1000000 (49.9999% done)


------------------------
--    ==========      --
--  === BOX 0  ===    --
--    ==========      --
------------------------

Volume: 817103 A^3
Tot # mol: 267

Molecule Type DP1
-------------------
Number: 267 ;
Density: 0.0543717 g/ml

Energy (in K): total: 365053

Displace (Box 0) -- tries: 172484; # Accept: 86254; % Accept : 50.007; Max Amt.: 4.44742
Rotate (Box 0) -- tries: 25041; # Accept: 14592; % Accept : 58.2724; Max Amt.: 3.14159
Molecule Transfer (Box 0 -> Box 1) -- tries: 49724; # Accept: 9100; % Accept : 18.301
Volume Transfer (Box 0 -> Box 1) -- tries: 5036; # Accept: 2728; % Accept : 54.17; Max Amt.: 47201


------------------------
--    ==========      --
--  === BOX 1  ===    --
--    ==========      --
------------------------

Volume: 1.79755e+06 A^3
Tot # mol: 733

Molecule Type DP1
-------------------
Number: 733 ;
Density: 0.0678519 g/ml

Energy (in K): total: 948618

Displace (Box 1) -- tries: 172748; # Accept: 86084; % Accept : 49.8321; Max Amt.: 2.11843
Rotate (Box 1) -- tries: 25108; # Accept: 17387; % Accept : 69.2488; Max Amt.: 3.08232
Molecule Transfer (Box 1 -> Box 0) -- tries: 49859; # Accept: 8867; % Accept : 17.7842
Volume Transfer (Box 1 -> Box 0) -- tries: 0; # Accept: 0; % Accept : -nan; Max Amt.: 500

------------------------
--    ==========      --
--  === SYSTEM ===    --
--    ==========      --
------------------------

Energy (in K): total: 1.31367e+06

Steps/sec. : 7092.2
STEP 599999 of 1000000 (59.9999% done)


------------------------
--    ==========      --
--  === BOX 0  ===    --
--    ==========      --
------------------------

Volume: 750173 A^3
Tot # mol: 282

Molecule Type DP1
-------------------
Number: 282 ;
Density: 0.0625499 g/ml

Energy (in K): total: 370738

Displace (Box 0) -- tries: 206852; # Accept: 103438; % Accept : 50.0058; Max Amt.: 3.61669
Rotate (Box 0) -- tries: 30154; # Accept: 17909; % Accept : 59.3918; Max Amt.: 3.14159
Molecule Transfer (Box 0 -> Box 1) -- tries: 59944; # Accept: 11096; % Accept : 18.5106
Volume Transfer (Box 0 -> Box 1) -- tries: 6021; # Accept: 3254; % Accept : 54.0442; Max Amt.: 33081.3


------------------------
--    ==========      --
--  === BOX 1  ===    --
--    ==========      --
------------------------

Volume: 1.86448e+06 A^3
Tot # mol: 718

Molecule Type DP1
-------------------
Number: 718 ;
Density: 0.0640775 g/ml

Energy (in K): total: 973184

Displace (Box 1) -- tries: 207183; # Accept: 103409; % Accept : 49.9119; Max Amt.: 3.13335
Rotate (Box 1) -- tries: 30039; # Accept: 20460; % Accept : 68.1115; Max Amt.: 3.14159
Molecule Transfer (Box 1 -> Box 0) -- tries: 59807; # Accept: 10878; % Accept : 18.1885
Volume Transfer (Box 1 -> Box 0) -- tries: 0; # Accept: 0; % Accept : -nan; Max Amt.: 500

------------------------
--    ==========      --
--  === SYSTEM ===    --
--    ==========      --
------------------------

Energy (in K): total: 1.34392e+06

Steps/sec. : 7092.2
STEP 699999 of 1000000 (69.9999% done)


------------------------
--    ==========      --
--  === BOX 0  ===    --
--    ==========      --
------------------------

Volume: 683182 A^3
Tot # mol: 237

Molecule Type DP1
-------------------
Number: 237 ;
Density: 0.0577232 g/ml

Energy (in K): total: 346850

Displace (Box 0) -- tries: 241404; # Accept: 120751; % Accept : 50.0203; Max Amt.: 3.4604
Rotate (Box 0) -- tries: 35084; # Accept: 21118; % Accept : 60.1927; Max Amt.: 3.14159
Molecule Transfer (Box 0 -> Box 1) -- tries: 69899; # Accept: 13038; % Accept : 18.6526
Volume Transfer (Box 0 -> Box 1) -- tries: 7041; # Accept: 3805; % Accept : 54.0406; Max Amt.: 17581.9


------------------------
--    ==========      --
--  === BOX 1  ===    --
--    ==========      --
------------------------

Volume: 1.93147e+06 A^3
Tot # mol: 763

Molecule Type DP1
-------------------
Number: 763 ;
Density: 0.0657318 g/ml

Energy (in K): total: 998834

Displace (Box 1) -- tries: 241680; # Accept: 120674; % Accept : 49.9313; Max Amt.: 2.7505
Rotate (Box 1) -- tries: 35119; # Accept: 23619; % Accept : 67.2542; Max Amt.: 3.14159
Molecule Transfer (Box 1 -> Box 0) -- tries: 69773; # Accept: 12775; % Accept : 18.3094
Volume Transfer (Box 1 -> Box 0) -- tries: 0; # Accept: 0; % Accept : -nan; Max Amt.: 500

------------------------
--    ==========      --
--  === SYSTEM ===    --
--    ==========      --
------------------------

Energy (in K): total: 1.34568e+06

Steps/sec. : 7017.54
STEP 799999 of 1000000 (79.9999% done)


------------------------
--    ==========      --
--  === BOX 0  ===    --
--    ==========      --
------------------------

Volume: 677405 A^3
Tot # mol: 213

Molecule Type DP1
-------------------
Number: 213 ;
Density: 0.0523203 g/ml

Energy (in K): total: 298051

Displace (Box 0) -- tries: 275626; # Accept: 137926; % Accept : 50.041; Max Amt.: 3.88436
Rotate (Box 0) -- tries: 40063; # Accept: 24400; % Accept : 60.9041; Max Amt.: 3.14159
Molecule Transfer (Box 0 -> Box 1) -- tries: 80045; # Accept: 15013; % Accept : 18.7557
Volume Transfer (Box 0 -> Box 1) -- tries: 8022; # Accept: 4339; % Accept : 54.0888; Max Amt.: 35924.5


------------------------
--    ==========      --
--  === BOX 1  ===    --
--    ==========      --
------------------------

Volume: 1.93725e+06 A^3
Tot # mol: 787

Molecule Type DP1
-------------------
Number: 787 ;
Density: 0.0675971 g/ml

Energy (in K): total: 1.03453e+06

Displace (Box 1) -- tries: 276323; # Accept: 138030; % Accept : 49.9524; Max Amt.: 2.9889
Rotate (Box 1) -- tries: 40046; # Accept: 26804; % Accept : 66.933; Max Amt.: 3.14159
Molecule Transfer (Box 1 -> Box 0) -- tries: 79875; # Accept: 14726; % Accept : 18.4363
Volume Transfer (Box 1 -> Box 0) -- tries: 0; # Accept: 0; % Accept : -nan; Max Amt.: 500

------------------------
--    ==========      --
--  === SYSTEM ===    --
--    ==========      --
------------------------

Energy (in K): total: 1.33258e+06

Steps/sec. : 6993.01
STEP 899999 of 1000000 (89.9999% done)


------------------------
--    ==========      --
--  === BOX 0  ===    --
--    ==========      --
------------------------

Volume: 673640 A^3
Tot # mol: 238

Molecule Type DP1
-------------------
Number: 238 ;
Density: 0.0587878 g/ml

Energy (in K): total: 341580

Displace (Box 0) -- tries: 309814; # Accept: 155028; % Accept : 50.0391; Max Amt.: 3.22934
Rotate (Box 0) -- tries: 45202; # Accept: 27639; % Accept : 61.1455; Max Amt.: 3.14159
Molecule Transfer (Box 0 -> Box 1) -- tries: 90204; # Accept: 16923; % Accept : 18.7608
Volume Transfer (Box 0 -> Box 1) -- tries: 9027; # Accept: 4870; % Accept : 53.9493; Max Amt.: 41271.3


------------------------
--    ==========      --
--  === BOX 1  ===    --
--    ==========      --
------------------------

Volume: 1.94101e+06 A^3
Tot # mol: 762

Molecule Type DP1
-------------------
Number: 762 ;
Density: 0.0653229 g/ml

Energy (in K): total: 1.0099e+06

Displace (Box 1) -- tries: 311005; # Accept: 155394; % Accept : 49.9651; Max Amt.: 2.84971
Rotate (Box 1) -- tries: 45068; # Accept: 30218; % Accept : 67.0498; Max Amt.: 3.14159
Molecule Transfer (Box 1 -> Box 0) -- tries: 89680; # Accept: 16661; % Accept : 18.5783
Volume Transfer (Box 1 -> Box 0) -- tries: 0; # Accept: 0; % Accept : -nan; Max Amt.: 500

------------------------
--    ==========      --
--  === SYSTEM ===    --
--    ==========      --
------------------------

Energy (in K): total: 1.35148e+06

Steps/sec. : 6854.01
STEP 999999 of 1000000 (99.9999% done)


------------------------
--    ==========      --
--  === BOX 0  ===    --
--    ==========      --
------------------------

Volume: 680841 A^3
Tot # mol: 257

Molecule Type DP1
-------------------
Number: 257 ;
Density: 0.0628096 g/ml

Energy (in K): total: 360251

Displace (Box 0) -- tries: 344245; # Accept: 172271; % Accept : 50.0431; Max Amt.: 2.86221
Rotate (Box 0) -- tries: 50235; # Accept: 31004; % Accept : 61.7179; Max Amt.: 3.14159
Molecule Transfer (Box 0 -> Box 1) -- tries: 100243; # Accept: 18908; % Accept : 18.8622
Volume Transfer (Box 0 -> Box 1) -- tries: 10036; # Accept: 5414; % Accept : 53.9458; Max Amt.: 21883.7


------------------------
--    ==========      --
--  === BOX 1  ===    --
--    ==========      --
------------------------

Volume: 1.93381e+06 A^3
Tot # mol: 743

Molecule Type DP1
-------------------
Number: 743 ;
Density: 0.0639313 g/ml

Energy (in K): total: 989595

Displace (Box 1) -- tries: 345530; # Accept: 172700; % Accept : 49.9812; Max Amt.: 3.1474
Rotate (Box 1) -- tries: 50109; # Accept: 33575; % Accept : 67.0039; Max Amt.: 3.14159
Molecule Transfer (Box 1 -> Box 0) -- tries: 99602; # Accept: 18665; % Accept : 18.7396
Volume Transfer (Box 1 -> Box 0) -- tries: 0; # Accept: 0; % Accept : -nan; Max Amt.: 500

------------------------
--    ==========      --
--  === SYSTEM ===    --
--    ==========      --
------------------------

Energy (in K): total: 1.34985e+06

Simulation Time (total): 147.07sec.
