GOMC Serial Version 0.97
Started at: Fri Aug 21 18:30:19 2015
On hostname: potoff44.eng.wayne.edu

------------------------------------------------------
This code was compiled to support the grand canonical ensemble.
------------------------------------------------------

Reading from Exotic Parameter File file: ./Par_Mie_Alkane_Exotic.inp

Finished reading Exotic Parameter File file: ./Par_Mie_Alkane_Exotic.inp

Reading from Box 1 PDB coordinate file file: ./STEP3_START_C6P_liq_BOX_0.pdb

Finished reading Box 1 PDB coordinate file file: ./STEP3_START_C6P_liq_BOX_0.pdb

Reading from Box 2 PDB coordinate file file: ./STEP3_START_C6P_reservoir_BOX_1.pdb

Finished reading Box 2 PDB coordinate file file: ./STEP3_START_C6P_reservoir_BOX_1.pdb

REMARINDER! 1-4 Interaction and more is OFF

Min. Box Size: 8000.1
STARTING SIMULATION!!


------------------------
--    ==========      --
--  === BOX 0  ===    --
--    ==========      --
------------------------

Volume: 42875 A^3
Tot # mol: 210

Molecule Type C6P
-------------------
Number: 210 ;
Density: 0.700908 g/ml

Energy (in K): total: 4.69325e+08


------------------------
--    ==========      --
--  === BOX 1  ===    --
--    ==========      --
------------------------

Volume: 42875 A^3
Tot # mol: 600

Molecule Type C6P
-------------------
Number: 600 ;
Density: 2.00259 g/ml

Energy (in K): total: -58795

------------------------
--    ==========      --
--  === SYSTEM ===    --
--    ==========      --
------------------------

Energy (in K): total: 4.69266e+08

Printed combined psf to file C6P_480_00_K_u_3250_r1a.psf
STEP 99999 of 1000000 (9.9999% done)


------------------------
--    ==========      --
--  === BOX 0  ===    --
--    ==========      --
------------------------

Volume: 42875 A^3
Tot # mol: 167

Molecule Type C6P
-------------------
Number: 167 ;
Density: 0.557388 g/ml

Energy (in K): total: -130924

Displace (Box 0) -- tries: 19764; # Accept: 9761; % Accept : 49.3878; Max Amt.: 0.377415
Rotate (Box 0) -- tries: 10070; # Accept: 5046; % Accept : 50.1092; Max Amt.: 0.501046
Deletion (from Box 0) -- tries: 35161; # Accept: 856; % Accept : 2.43452


------------------------
--    ==========      --
--  === BOX 1  ===    --
--    ==========      --
------------------------

Volume: 42875 A^3
Tot # mol: 643

Molecule Type C6P
-------------------
Number: 643 ;
Density: 2.14611 g/ml

Energy (in K): total: 960784

Insertion (into Box 0) -- tries: 35005; # Accept: 813; % Accept : 2.32253

------------------------
--    ==========      --
--  === SYSTEM ===    --
--    ==========      --
------------------------

Energy (in K): total: 829860

Steps/sec. : 2718.13
STEP 199999 of 1000000 (19.9999% done)


------------------------
--    ==========      --
--  === BOX 0  ===    --
--    ==========      --
------------------------

Volume: 42875 A^3
Tot # mol: 169

Molecule Type C6P
-------------------
Number: 169 ;
Density: 0.564064 g/ml

Energy (in K): total: -129389

Displace (Box 0) -- tries: 39654; # Accept: 19752; % Accept : 49.8109; Max Amt.: 0.359109
Rotate (Box 0) -- tries: 20176; # Accept: 10127; % Accept : 50.1933; Max Amt.: 0.431144
Deletion (from Box 0) -- tries: 70149; # Accept: 1425; % Accept : 2.03139


------------------------
--    ==========      --
--  === BOX 1  ===    --
--    ==========      --
------------------------

Volume: 42875 A^3
Tot # mol: 641

Molecule Type C6P
-------------------
Number: 641 ;
Density: 2.13944 g/ml

Energy (in K): total: 1.17483e+06

Insertion (into Box 0) -- tries: 70021; # Accept: 1384; % Accept : 1.97655

------------------------
--    ==========      --
--  === SYSTEM ===    --
--    ==========      --
------------------------

Energy (in K): total: 1.04545e+06

Steps/sec. : 2670.94
STEP 299999 of 1000000 (29.9999% done)


------------------------
--    ==========      --
--  === BOX 0  ===    --
--    ==========      --
------------------------

Volume: 42875 A^3
Tot # mol: 169

Molecule Type C6P
-------------------
Number: 169 ;
Density: 0.564064 g/ml

Energy (in K): total: -121241

Displace (Box 0) -- tries: 59848; # Accept: 29902; % Accept : 49.9632; Max Amt.: 0.394332
Rotate (Box 0) -- tries: 30223; # Accept: 15196; % Accept : 50.2796; Max Amt.: 0.486044
Deletion (from Box 0) -- tries: 105137; # Accept: 2026; % Accept : 1.92701


------------------------
--    ==========      --
--  === BOX 1  ===    --
--    ==========      --
------------------------

Volume: 42875 A^3
Tot # mol: 641

Molecule Type C6P
-------------------
Number: 641 ;
Density: 2.13944 g/ml

Energy (in K): total: 1.2844e+06

Insertion (into Box 0) -- tries: 104792; # Accept: 1985; % Accept : 1.89423

------------------------
--    ==========      --
--  === SYSTEM ===    --
--    ==========      --
------------------------

Energy (in K): total: 1.16316e+06

Steps/sec. : 2691.79
STEP 399999 of 1000000 (39.9999% done)


------------------------
--    ==========      --
--  === BOX 0  ===    --
--    ==========      --
------------------------

Volume: 42875 A^3
Tot # mol: 170

Molecule Type C6P
-------------------
Number: 170 ;
Density: 0.567401 g/ml

Energy (in K): total: -125743

Displace (Box 0) -- tries: 79723; # Accept: 39854; % Accept : 49.9906; Max Amt.: 0.316342
Rotate (Box 0) -- tries: 40304; # Accept: 20264; % Accept : 50.2779; Max Amt.: 0.504747
Deletion (from Box 0) -- tries: 140051; # Accept: 2641; % Accept : 1.88574


------------------------
--    ==========      --
--  === BOX 1  ===    --
--    ==========      --
------------------------

Volume: 42875 A^3
Tot # mol: 640

Molecule Type C6P
-------------------
Number: 640 ;
Density: 2.1361 g/ml

Energy (in K): total: 1.29344e+06

Insertion (into Box 0) -- tries: 139922; # Accept: 2601; % Accept : 1.85889

------------------------
--    ==========      --
--  === SYSTEM ===    --
--    ==========      --
------------------------

Energy (in K): total: 1.1677e+06

Steps/sec. : 2675.23
STEP 499999 of 1000000 (49.9999% done)


------------------------
--    ==========      --
--  === BOX 0  ===    --
--    ==========      --
------------------------

Volume: 42875 A^3
Tot # mol: 172

Molecule Type C6P
-------------------
Number: 172 ;
Density: 0.574077 g/ml

Energy (in K): total: -107428

Displace (Box 0) -- tries: 99809; # Accept: 49978; % Accept : 50.0736; Max Amt.: 0.385253
Rotate (Box 0) -- tries: 50408; # Accept: 25353; % Accept : 50.2956; Max Amt.: 0.435674
Deletion (from Box 0) -- tries: 174994; # Accept: 3184; % Accept : 1.81949


------------------------
--    ==========      --
--  === BOX 1  ===    --
--    ==========      --
------------------------

Volume: 42875 A^3
Tot # mol: 638

Molecule Type C6P
-------------------
Number: 638 ;
Density: 2.12942 g/ml

Energy (in K): total: 1.34569e+06

Insertion (into Box 0) -- tries: 174789; # Accept: 3146; % Accept : 1.79988

------------------------
--    ==========      --
--  === SYSTEM ===    --
--    ==========      --
------------------------

Energy (in K): total: 1.23826e+06

Steps/sec. : 2658.16
STEP 599999 of 1000000 (59.9999% done)


------------------------
--    ==========      --
--  === BOX 0  ===    --
--    ==========      --
------------------------

Volume: 42875 A^3
Tot # mol: 173

Molecule Type C6P
-------------------
Number: 173 ;
Density: 0.577414 g/ml

Energy (in K): total: -118135

Displace (Box 0) -- tries: 119734; # Accept: 59977; % Accept : 50.0919; Max Amt.: 0.378371
Rotate (Box 0) -- tries: 60427; # Accept: 30395; % Accept : 50.3004; Max Amt.: 0.464974
Deletion (from Box 0) -- tries: 209993; # Accept: 3794; % Accept : 1.80673


------------------------
--    ==========      --
--  === BOX 1  ===    --
--    ==========      --
------------------------

Volume: 42875 A^3
Tot # mol: 637

Molecule Type C6P
-------------------
Number: 637 ;
Density: 2.12609 g/ml

Energy (in K): total: 1.36256e+06

Insertion (into Box 0) -- tries: 209846; # Accept: 3757; % Accept : 1.79036

------------------------
--    ==========      --
--  === SYSTEM ===    --
--    ==========      --
------------------------

Energy (in K): total: 1.24443e+06

Steps/sec. : 2665.25
STEP 699999 of 1000000 (69.9999% done)


------------------------
--    ==========      --
--  === BOX 0  ===    --
--    ==========      --
------------------------

Volume: 42875 A^3
Tot # mol: 173

Molecule Type C6P
-------------------
Number: 173 ;
Density: 0.577414 g/ml

Energy (in K): total: -143193

Displace (Box 0) -- tries: 139887; # Accept: 70117; % Accept : 50.124; Max Amt.: 0.398109
Rotate (Box 0) -- tries: 70342; # Accept: 35366; % Accept : 50.2772; Max Amt.: 0.349307
Deletion (from Box 0) -- tries: 244894; # Accept: 4422; % Accept : 1.80568


------------------------
--    ==========      --
--  === BOX 1  ===    --
--    ==========      --
------------------------

Volume: 42875 A^3
Tot # mol: 637

Molecule Type C6P
-------------------
Number: 637 ;
Density: 2.12609 g/ml

Energy (in K): total: 1.36469e+06

Insertion (into Box 0) -- tries: 244877; # Accept: 4385; % Accept : 1.79069

------------------------
--    ==========      --
--  === SYSTEM ===    --
--    ==========      --
------------------------

Energy (in K): total: 1.2215e+06

Steps/sec. : 2676.66
STEP 799999 of 1000000 (79.9999% done)


------------------------
--    ==========      --
--  === BOX 0  ===    --
--    ==========      --
------------------------

Volume: 42875 A^3
Tot # mol: 170

Molecule Type C6P
-------------------
Number: 170 ;
Density: 0.567401 g/ml

Energy (in K): total: -129676

Displace (Box 0) -- tries: 160011; # Accept: 80219; % Accept : 50.1334; Max Amt.: 0.398558
Rotate (Box 0) -- tries: 80356; # Accept: 40408; % Accept : 50.2862; Max Amt.: 0.374183
Deletion (from Box 0) -- tries: 279682; # Accept: 5039; % Accept : 1.80169


------------------------
--    ==========      --
--  === BOX 1  ===    --
--    ==========      --
------------------------

Volume: 42875 A^3
Tot # mol: 640

Molecule Type C6P
-------------------
Number: 640 ;
Density: 2.1361 g/ml

Energy (in K): total: 1.39011e+06

Insertion (into Box 0) -- tries: 279951; # Accept: 4999; % Accept : 1.78567

------------------------
--    ==========      --
--  === SYSTEM ===    --
--    ==========      --
------------------------

Energy (in K): total: 1.26043e+06

Steps/sec. : 2659.57
STEP 899999 of 1000000 (89.9999% done)


------------------------
--    ==========      --
--  === BOX 0  ===    --
--    ==========      --
------------------------

Volume: 42875 A^3
Tot # mol: 167

Molecule Type C6P
-------------------
Number: 167 ;
Density: 0.557388 g/ml

Energy (in K): total: -103775

Displace (Box 0) -- tries: 179937; # Accept: 90203; % Accept : 50.1303; Max Amt.: 0.340255
Rotate (Box 0) -- tries: 90385; # Accept: 45459; % Accept : 50.2948; Max Amt.: 0.398319
Deletion (from Box 0) -- tries: 314936; # Accept: 5616; % Accept : 1.78322


------------------------
--    ==========      --
--  === BOX 1  ===    --
--    ==========      --
------------------------

Volume: 42875 A^3
Tot # mol: 643

Molecule Type C6P
-------------------
Number: 643 ;
Density: 2.14611 g/ml

Energy (in K): total: 1.40316e+06

Insertion (into Box 0) -- tries: 314742; # Accept: 5573; % Accept : 1.77066

------------------------
--    ==========      --
--  === SYSTEM ===    --
--    ==========      --
------------------------

Energy (in K): total: 1.29938e+06

Steps/sec. : 2668.8
STEP 999999 of 1000000 (99.9999% done)


------------------------
--    ==========      --
--  === BOX 0  ===    --
--    ==========      --
------------------------

Volume: 42875 A^3
Tot # mol: 176

Molecule Type C6P
-------------------
Number: 176 ;
Density: 0.587427 g/ml

Energy (in K): total: -115899

Displace (Box 0) -- tries: 199884; # Accept: 100236; % Accept : 50.1471; Max Amt.: 0.364222
Rotate (Box 0) -- tries: 100430; # Accept: 50516; % Accept : 50.2997; Max Amt.: 0.437864
Deletion (from Box 0) -- tries: 349654; # Accept: 6294; % Accept : 1.80007


------------------------
--    ==========      --
--  === BOX 1  ===    --
--    ==========      --
------------------------

Volume: 42875 A^3
Tot # mol: 634

Molecule Type C6P
-------------------
Number: 634 ;
Density: 2.11607 g/ml

Energy (in K): total: 1.43336e+06

Insertion (into Box 0) -- tries: 350032; # Accept: 6260; % Accept : 1.78841

------------------------
--    ==========      --
--  === SYSTEM ===    --
--    ==========      --
------------------------

Energy (in K): total: 1.31746e+06

Simulation Time (total): 373.56sec.
