GOMC Serial Version 0.97
Started at: Sat Aug 22 17:19:29 2015
On hostname: potoff40.eng.wayne.edu

------------------------------------------------------
This code was compiled to support the canonical (NVT) ensemble.
------------------------------------------------------

Warning: Output fluctuation has been set off, energy ouput for fluctuation will be ignored!
Warning: Output fluctuation has been set off, pressure ouput for fluctuation will be ignored!
Reading from Exotic Parameter File file: ./Par_Vrabec01_Noble_Gases_Exotic.inp

Finished reading Exotic Parameter File file: ./Par_Vrabec01_Noble_Gases_Exotic.inp

Reading from system PDB coordinate file file: ./STEP3_START_NE_sys_BOX_0.pdb

Finished reading system PDB coordinate file file: ./STEP3_START_NE_sys_BOX_0.pdb

REMARINDER! 1-4 Interaction and more is OFF

Min. Box Size: 8000.1
STARTING SIMULATION!!


------------------------
--    ==========      --
--  === BOX 0  ===    --
--    ==========      --
------------------------

Volume: 733798 A^3
Tot # mol: 1000

Molecule Type NE
-------------------
Number: 1000 ;
Density: 0.0456661 g/ml

Energy (in K): total: 10558.5

------------------------
--    ==========      --
--  === SYSTEM ===    --
--    ==========      --
------------------------

Energy (in K): total: 10558.5

Printed combined psf to file neon_34_00_K.psf
STEP 99999 of 1000000 (9.9999% done)


------------------------
--    ==========      --
--  === BOX 0  ===    --
--    ==========      --
------------------------

Volume: 733798 A^3
Tot # mol: 1000

Molecule Type NE
-------------------
Number: 1000 ;
Density: 0.0456661 g/ml

Energy (in K): total: -9240.04

Displace (Box 0) -- tries: 100000; # Accept: 67863; % Accept : 67.863; Max Amt.: 45.0985
Rotate (Box 0) -- tries: 0; # Accept: 0; % Accept : -nan; Max Amt.: 0.785398

------------------------
--    ==========      --
--  === SYSTEM ===    --
--    ==========      --
------------------------

Energy (in K): total: -9240.04

Steps/sec. : 243902
STEP 199999 of 1000000 (19.9999% done)


------------------------
--    ==========      --
--  === BOX 0  ===    --
--    ==========      --
------------------------

Volume: 733798 A^3
Tot # mol: 1000

Molecule Type NE
-------------------
Number: 1000 ;
Density: 0.0456661 g/ml

Energy (in K): total: -9681.94

Displace (Box 0) -- tries: 200000; # Accept: 135817; % Accept : 67.9085; Max Amt.: 45.0985
Rotate (Box 0) -- tries: 0; # Accept: 0; % Accept : -nan; Max Amt.: 0.785398

------------------------
--    ==========      --
--  === SYSTEM ===    --
--    ==========      --
------------------------

Energy (in K): total: -9681.94

Steps/sec. : 250000
STEP 299999 of 1000000 (29.9999% done)


------------------------
--    ==========      --
--  === BOX 0  ===    --
--    ==========      --
------------------------

Volume: 733798 A^3
Tot # mol: 1000

Molecule Type NE
-------------------
Number: 1000 ;
Density: 0.0456661 g/ml

Energy (in K): total: -9182.55

Displace (Box 0) -- tries: 300000; # Accept: 203293; % Accept : 67.7643; Max Amt.: 45.0985
Rotate (Box 0) -- tries: 0; # Accept: 0; % Accept : -nan; Max Amt.: 0.785398

------------------------
--    ==========      --
--  === SYSTEM ===    --
--    ==========      --
------------------------

Energy (in K): total: -9182.55

Steps/sec. : 250000
STEP 399999 of 1000000 (39.9999% done)


------------------------
--    ==========      --
--  === BOX 0  ===    --
--    ==========      --
------------------------

Volume: 733798 A^3
Tot # mol: 1000

Molecule Type NE
-------------------
Number: 1000 ;
Density: 0.0456661 g/ml

Energy (in K): total: -10072.6

Displace (Box 0) -- tries: 400000; # Accept: 271220; % Accept : 67.805; Max Amt.: 45.0985
Rotate (Box 0) -- tries: 0; # Accept: 0; % Accept : -nan; Max Amt.: 0.785398

------------------------
--    ==========      --
--  === SYSTEM ===    --
--    ==========      --
------------------------

Energy (in K): total: -10072.6

Steps/sec. : 250000
STEP 499999 of 1000000 (49.9999% done)


------------------------
--    ==========      --
--  === BOX 0  ===    --
--    ==========      --
------------------------

Volume: 733798 A^3
Tot # mol: 1000

Molecule Type NE
-------------------
Number: 1000 ;
Density: 0.0456661 g/ml

Energy (in K): total: -9756.53

Displace (Box 0) -- tries: 500000; # Accept: 338555; % Accept : 67.711; Max Amt.: 45.0985
Rotate (Box 0) -- tries: 0; # Accept: 0; % Accept : -nan; Max Amt.: 0.785398

------------------------
--    ==========      --
--  === SYSTEM ===    --
--    ==========      --
------------------------

Energy (in K): total: -9756.53

Steps/sec. : 250000
STEP 599999 of 1000000 (59.9999% done)


------------------------
--    ==========      --
--  === BOX 0  ===    --
--    ==========      --
------------------------

Volume: 733798 A^3
Tot # mol: 1000

Molecule Type NE
-------------------
Number: 1000 ;
Density: 0.0456661 g/ml

Energy (in K): total: -10384

Displace (Box 0) -- tries: 600000; # Accept: 406598; % Accept : 67.7663; Max Amt.: 45.0985
Rotate (Box 0) -- tries: 0; # Accept: 0; % Accept : -nan; Max Amt.: 0.785398

------------------------
--    ==========      --
--  === SYSTEM ===    --
--    ==========      --
------------------------

Energy (in K): total: -10384

Steps/sec. : 256410
STEP 699999 of 1000000 (69.9999% done)


------------------------
--    ==========      --
--  === BOX 0  ===    --
--    ==========      --
------------------------

Volume: 733798 A^3
Tot # mol: 1000

Molecule Type NE
-------------------
Number: 1000 ;
Density: 0.0456661 g/ml

Energy (in K): total: -9919.71

Displace (Box 0) -- tries: 700000; # Accept: 474270; % Accept : 67.7529; Max Amt.: 45.0985
Rotate (Box 0) -- tries: 0; # Accept: 0; % Accept : -nan; Max Amt.: 0.785398

------------------------
--    ==========      --
--  === SYSTEM ===    --
--    ==========      --
------------------------

Energy (in K): total: -9919.71

Steps/sec. : 250000
STEP 799999 of 1000000 (79.9999% done)


------------------------
--    ==========      --
--  === BOX 0  ===    --
--    ==========      --
------------------------

Volume: 733798 A^3
Tot # mol: 1000

Molecule Type NE
-------------------
Number: 1000 ;
Density: 0.0456661 g/ml

Energy (in K): total: -9272.86

Displace (Box 0) -- tries: 800000; # Accept: 542462; % Accept : 67.8077; Max Amt.: 45.0985
Rotate (Box 0) -- tries: 0; # Accept: 0; % Accept : -nan; Max Amt.: 0.785398

------------------------
--    ==========      --
--  === SYSTEM ===    --
--    ==========      --
------------------------

Energy (in K): total: -9272.86

Steps/sec. : 250000
STEP 899999 of 1000000 (89.9999% done)


------------------------
--    ==========      --
--  === BOX 0  ===    --
--    ==========      --
------------------------

Volume: 733798 A^3
Tot # mol: 1000

Molecule Type NE
-------------------
Number: 1000 ;
Density: 0.0456661 g/ml

Energy (in K): total: -8708.24

Displace (Box 0) -- tries: 900000; # Accept: 610356; % Accept : 67.8173; Max Amt.: 45.0985
Rotate (Box 0) -- tries: 0; # Accept: 0; % Accept : -nan; Max Amt.: 0.785398

------------------------
--    ==========      --
--  === SYSTEM ===    --
--    ==========      --
------------------------

Energy (in K): total: -8708.24

Steps/sec. : 250000
STEP 999999 of 1000000 (99.9999% done)


------------------------
--    ==========      --
--  === BOX 0  ===    --
--    ==========      --
------------------------

Volume: 733798 A^3
Tot # mol: 1000

Molecule Type NE
-------------------
Number: 1000 ;
Density: 0.0456661 g/ml

Energy (in K): total: -10212.5

Displace (Box 0) -- tries: 1000000; # Accept: 678556; % Accept : 67.8556; Max Amt.: 45.0985
Rotate (Box 0) -- tries: 0; # Accept: 0; % Accept : -nan; Max Amt.: 0.785398

------------------------
--    ==========      --
--  === SYSTEM ===    --
--    ==========      --
------------------------

Energy (in K): total: -10212.5

Simulation Time (total): 4.01sec.
