GOMC Serial Version 0.97
Started at: Fri Aug 21 18:10:55 2015
On hostname: potoff40.eng.wayne.edu

------------------------------------------------------
This code was compiled to support the grand canonical ensemble.
------------------------------------------------------

Reading from Exotic Parameter File file: ./Par_Vrabec01_Noble_Gases_Exotic.inp

Finished reading Exotic Parameter File file: ./Par_Vrabec01_Noble_Gases_Exotic.inp

Reading from Box 1 PDB coordinate file file: ./STEP3_START_AR_vap_BOX_0.pdb

Finished reading Box 1 PDB coordinate file file: ./STEP3_START_AR_vap_BOX_0.pdb

Reading from Box 2 PDB coordinate file file: ./STEP3_START_AR_reservoir_BOX_1.pdb

Finished reading Box 2 PDB coordinate file file: ./STEP3_START_AR_reservoir_BOX_1.pdb

REMARINDER! 1-4 Interaction and more is OFF

Min. Box Size: 8000.1
STARTING SIMULATION!!


------------------------
--    ==========      --
--  === BOX 0  ===    --
--    ==========      --
------------------------

Volume: 15625 A^3
Tot # mol: 2

Molecule Type AR
-------------------
Number: 2 ;
Density: 0.00849091 g/ml

Energy (in K): total: -35.6932


------------------------
--    ==========      --
--  === BOX 1  ===    --
--    ==========      --
------------------------

Volume: 15625 A^3
Tot # mol: 600

Molecule Type AR
-------------------
Number: 600 ;
Density: 2.54727 g/ml

Energy (in K): total: 0

------------------------
--    ==========      --
--  === SYSTEM ===    --
--    ==========      --
------------------------

Energy (in K): total: -35.6932

Printed combined psf to file AR_140_00_K_u_968_r1a.psf
STEP 99999 of 1000000 (9.9999% done)


------------------------
--    ==========      --
--  === BOX 0  ===    --
--    ==========      --
------------------------

Volume: 15625 A^3
Tot # mol: 25

Molecule Type AR
-------------------
Number: 25 ;
Density: 0.106136 g/ml

Energy (in K): total: -1320.53

Displace (Box 0) -- tries: 29973; # Accept: 17460; % Accept : 58.2524; Max Amt.: 12.5
Deletion (from Box 0) -- tries: 35046; # Accept: 30397; % Accept : 86.7346


------------------------
--    ==========      --
--  === BOX 1  ===    --
--    ==========      --
------------------------

Volume: 15625 A^3
Tot # mol: 577

Molecule Type AR
-------------------
Number: 577 ;
Density: 2.44963 g/ml

Energy (in K): total: 0

Insertion (into Box 0) -- tries: 34981; # Accept: 30420; % Accept : 86.9615

------------------------
--    ==========      --
--  === SYSTEM ===    --
--    ==========      --
------------------------

Energy (in K): total: -1320.53

Steps/sec. : 75757.6
STEP 199999 of 1000000 (19.9999% done)


------------------------
--    ==========      --
--  === BOX 0  ===    --
--    ==========      --
------------------------

Volume: 15625 A^3
Tot # mol: 22

Molecule Type AR
-------------------
Number: 22 ;
Density: 0.0934 g/ml

Energy (in K): total: -789.114

Displace (Box 0) -- tries: 59808; # Accept: 34911; % Accept : 58.3718; Max Amt.: 12.5
Deletion (from Box 0) -- tries: 70292; # Accept: 60954; % Accept : 86.7154


------------------------
--    ==========      --
--  === BOX 1  ===    --
--    ==========      --
------------------------

Volume: 15625 A^3
Tot # mol: 580

Molecule Type AR
-------------------
Number: 580 ;
Density: 2.46236 g/ml

Energy (in K): total: 0

Insertion (into Box 0) -- tries: 69900; # Accept: 60974; % Accept : 87.2303

------------------------
--    ==========      --
--  === SYSTEM ===    --
--    ==========      --
------------------------

Energy (in K): total: -789.114

Steps/sec. : 76923.1
STEP 299999 of 1000000 (29.9999% done)


------------------------
--    ==========      --
--  === BOX 0  ===    --
--    ==========      --
------------------------

Volume: 15625 A^3
Tot # mol: 34

Molecule Type AR
-------------------
Number: 34 ;
Density: 0.144345 g/ml

Energy (in K): total: -2341.34

Displace (Box 0) -- tries: 89708; # Accept: 52520; % Accept : 58.5455; Max Amt.: 12.5
Deletion (from Box 0) -- tries: 105260; # Accept: 91486; % Accept : 86.9143


------------------------
--    ==========      --
--  === BOX 1  ===    --
--    ==========      --
------------------------

Volume: 15625 A^3
Tot # mol: 568

Molecule Type AR
-------------------
Number: 568 ;
Density: 2.41142 g/ml

Energy (in K): total: 0

Insertion (into Box 0) -- tries: 105032; # Accept: 91518; % Accept : 87.1334

------------------------
--    ==========      --
--  === SYSTEM ===    --
--    ==========      --
------------------------

Energy (in K): total: -2341.34

Steps/sec. : 76923.1
STEP 399999 of 1000000 (39.9999% done)


------------------------
--    ==========      --
--  === BOX 0  ===    --
--    ==========      --
------------------------

Volume: 15625 A^3
Tot # mol: 29

Molecule Type AR
-------------------
Number: 29 ;
Density: 0.123118 g/ml

Energy (in K): total: -2638.06

Displace (Box 0) -- tries: 120024; # Accept: 70133; % Accept : 58.4325; Max Amt.: 12.5
Deletion (from Box 0) -- tries: 140095; # Accept: 121851; % Accept : 86.9774


------------------------
--    ==========      --
--  === BOX 1  ===    --
--    ==========      --
------------------------

Volume: 15625 A^3
Tot # mol: 573

Molecule Type AR
-------------------
Number: 573 ;
Density: 2.43265 g/ml

Energy (in K): total: 0

Insertion (into Box 0) -- tries: 139881; # Accept: 121878; % Accept : 87.1298

------------------------
--    ==========      --
--  === SYSTEM ===    --
--    ==========      --
------------------------

Energy (in K): total: -2638.06

Steps/sec. : 75757.6
STEP 499999 of 1000000 (49.9999% done)


------------------------
--    ==========      --
--  === BOX 0  ===    --
--    ==========      --
------------------------

Volume: 15625 A^3
Tot # mol: 40

Molecule Type AR
-------------------
Number: 40 ;
Density: 0.169818 g/ml

Energy (in K): total: -4233.32

Displace (Box 0) -- tries: 150190; # Accept: 87529; % Accept : 58.2788; Max Amt.: 12.5
Deletion (from Box 0) -- tries: 174928; # Accept: 152279; % Accept : 87.0524


------------------------
--    ==========      --
--  === BOX 1  ===    --
--    ==========      --
------------------------

Volume: 15625 A^3
Tot # mol: 562

Molecule Type AR
-------------------
Number: 562 ;
Density: 2.38595 g/ml

Energy (in K): total: 0

Insertion (into Box 0) -- tries: 174882; # Accept: 152317; % Accept : 87.097

------------------------
--    ==========      --
--  === SYSTEM ===    --
--    ==========      --
------------------------

Energy (in K): total: -4233.32

Steps/sec. : 75757.6
STEP 599999 of 1000000 (59.9999% done)


------------------------
--    ==========      --
--  === BOX 0  ===    --
--    ==========      --
------------------------

Volume: 15625 A^3
Tot # mol: 36

Molecule Type AR
-------------------
Number: 36 ;
Density: 0.152836 g/ml

Energy (in K): total: -2276.76

Displace (Box 0) -- tries: 180309; # Accept: 104849; % Accept : 58.1496; Max Amt.: 12.5
Deletion (from Box 0) -- tries: 209784; # Accept: 182752; % Accept : 87.1144


------------------------
--    ==========      --
--  === BOX 1  ===    --
--    ==========      --
------------------------

Volume: 15625 A^3
Tot # mol: 566

Molecule Type AR
-------------------
Number: 566 ;
Density: 2.40293 g/ml

Energy (in K): total: 0

Insertion (into Box 0) -- tries: 209907; # Accept: 182786; % Accept : 87.0795

------------------------
--    ==========      --
--  === SYSTEM ===    --
--    ==========      --
------------------------

Energy (in K): total: -2276.76

Steps/sec. : 75757.6
STEP 699999 of 1000000 (69.9999% done)


------------------------
--    ==========      --
--  === BOX 0  ===    --
--    ==========      --
------------------------

Volume: 15625 A^3
Tot # mol: 24

Molecule Type AR
-------------------
Number: 24 ;
Density: 0.101891 g/ml

Energy (in K): total: -1058.99

Displace (Box 0) -- tries: 210406; # Accept: 122256; % Accept : 58.1048; Max Amt.: 12.5
Deletion (from Box 0) -- tries: 244524; # Accept: 213207; % Accept : 87.1927


------------------------
--    ==========      --
--  === BOX 1  ===    --
--    ==========      --
------------------------

Volume: 15625 A^3
Tot # mol: 578

Molecule Type AR
-------------------
Number: 578 ;
Density: 2.45387 g/ml

Energy (in K): total: 0

Insertion (into Box 0) -- tries: 245070; # Accept: 213229; % Accept : 87.0074

------------------------
--    ==========      --
--  === SYSTEM ===    --
--    ==========      --
------------------------

Energy (in K): total: -1058.99

Steps/sec. : 74626.9
STEP 799999 of 1000000 (79.9999% done)


------------------------
--    ==========      --
--  === BOX 0  ===    --
--    ==========      --
------------------------

Volume: 15625 A^3
Tot # mol: 13

Molecule Type AR
-------------------
Number: 13 ;
Density: 0.0551909 g/ml

Energy (in K): total: -197.601

Displace (Box 0) -- tries: 240477; # Accept: 140081; % Accept : 58.2513; Max Amt.: 12.5
Deletion (from Box 0) -- tries: 279666; # Accept: 243724; % Accept : 87.1482


------------------------
--    ==========      --
--  === BOX 1  ===    --
--    ==========      --
------------------------

Volume: 15625 A^3
Tot # mol: 589

Molecule Type AR
-------------------
Number: 589 ;
Density: 2.50057 g/ml

Energy (in K): total: 0

Insertion (into Box 0) -- tries: 279857; # Accept: 243735; % Accept : 87.0927

------------------------
--    ==========      --
--  === SYSTEM ===    --
--    ==========      --
------------------------

Energy (in K): total: -197.601

Steps/sec. : 77519.4
STEP 899999 of 1000000 (89.9999% done)


------------------------
--    ==========      --
--  === BOX 0  ===    --
--    ==========      --
------------------------

Volume: 15625 A^3
Tot # mol: 31

Molecule Type AR
-------------------
Number: 31 ;
Density: 0.131609 g/ml

Energy (in K): total: -1906.61

Displace (Box 0) -- tries: 270472; # Accept: 157465; % Accept : 58.2186; Max Amt.: 12.5
Deletion (from Box 0) -- tries: 314734; # Accept: 274229; % Accept : 87.1304


------------------------
--    ==========      --
--  === BOX 1  ===    --
--    ==========      --
------------------------

Volume: 15625 A^3
Tot # mol: 571

Molecule Type AR
-------------------
Number: 571 ;
Density: 2.42415 g/ml

Energy (in K): total: 0

Insertion (into Box 0) -- tries: 314794; # Accept: 274258; % Accept : 87.123

------------------------
--    ==========      --
--  === SYSTEM ===    --
--    ==========      --
------------------------

Energy (in K): total: -1906.61

Steps/sec. : 76335.9
STEP 999999 of 1000000 (99.9999% done)


------------------------
--    ==========      --
--  === BOX 0  ===    --
--    ==========      --
------------------------

Volume: 15625 A^3
Tot # mol: 29

Molecule Type AR
-------------------
Number: 29 ;
Density: 0.123118 g/ml

Energy (in K): total: -2394.32

Displace (Box 0) -- tries: 300368; # Accept: 174750; % Accept : 58.1786; Max Amt.: 12.5
Deletion (from Box 0) -- tries: 349617; # Accept: 304762; % Accept : 87.1702


------------------------
--    ==========      --
--  === BOX 1  ===    --
--    ==========      --
------------------------

Volume: 15625 A^3
Tot # mol: 573

Molecule Type AR
-------------------
Number: 573 ;
Density: 2.43265 g/ml

Energy (in K): total: 0

Insertion (into Box 0) -- tries: 350015; # Accept: 304789; % Accept : 87.0788

------------------------
--    ==========      --
--  === SYSTEM ===    --
--    ==========      --
------------------------

Energy (in K): total: -2394.32

Simulation Time (total): 13.18sec.
