GOMC Serial Version 0.97
Started at: Sun Aug 23 21:29:39 2015
On hostname: potoff44.eng.wayne.edu

------------------------------------------------------
This code was compiled to support the Gibbs ensemble.
------------------------------------------------------

Warning: Output fluctuation has been set off, energy ouput for fluctuation will be ignored!
Warning: Output fluctuation has been set off, pressure ouput for fluctuation will be ignored!
Warning: Output fluctuation has been set off, molecule number ouput for fluctuation will be ignored!
Warning: Output fluctuation has been set off, accept angles ouput for fluctuation will be ignored!
Warning: Output fluctuation has been set off, density ouput for fluctuation will be ignored!
Reading from Exotic Parameter File file: ./Par_Mie_Alkane_Vrabec01_Noble_Gases_Exotic.inp

Finished reading Exotic Parameter File file: ./Par_Mie_Alkane_Vrabec01_Noble_Gases_Exotic.inp

Reading from Box 1 PDB coordinate file file: ./STEP3_START_XE_C2P_sys_BOX_0.pdb

Finished reading Box 1 PDB coordinate file file: ./STEP3_START_XE_C2P_sys_BOX_0.pdb

Reading from Box 2 PDB coordinate file file: ./STEP3_START_XE_C2P_sys_BOX_1.pdb

Finished reading Box 2 PDB coordinate file file: ./STEP3_START_XE_C2P_sys_BOX_1.pdb

Molecules in PSF:

Molecule Kind: C2P
Idx	name	type	charge	mass
0	C1	CH3	0	15.035
1	C2	CH3	0	15.035

Bonds:
[0 1] 

Angles:

Dihedrals:

Molecule Kind: XE
Idx	name	type	charge	mass
0	XE	XE	0	131.293

Bonds:

Angles:

Dihedrals:

REMAINDER! 1-4 Interaction is OFF

Min. Box Size: 8000.1
STARTING SIMULATION!!


------------------------
--    ==========      --
--  === BOX 0  ===    --
--    ==========      --
------------------------

Volume: 166375 A^3
Tot # mol: 1000

Molecule Type XE
-------------------
Number: 500 ;
Density: 0.655198 g/ml

Molecule Type C2P
-------------------
Number: 500 ;
Density: 0.15006 g/ml

Energy (in K): total: 1.67821e+13


------------------------
--    ==========      --
--  === BOX 1  ===    --
--    ==========      --
------------------------

Volume: 474552 A^3
Tot # mol: 1000

Molecule Type XE
-------------------
Number: 500 ;
Density: 0.229708 g/ml

Molecule Type C2P
-------------------
Number: 500 ;
Density: 0.0526101 g/ml

Energy (in K): total: 8.21217e+11

------------------------
--    ==========      --
--  === SYSTEM ===    --
--    ==========      --
------------------------

Energy (in K): total: 1.76033e+13

Printed combined psf to file xenon_ethane_NVT_143_15_K.psf
STEP 99999 of 1000000 (9.9999% done)


------------------------
--    ==========      --
--  === BOX 0  ===    --
--    ==========      --
------------------------

Volume: 180031 A^3
Tot # mol: 1862

Molecule Type XE
-------------------
Number: 908 ;
Density: 1.09959 g/ml

Molecule Type C2P
-------------------
Number: 954 ;
Density: 0.264596 g/ml

Energy (in K): total: -2.24382e+06

Displace (Box 0) -- tries: 36968; # Accept: 17987; % Accept : 48.6556; Max Amt.: 0.431091
Rotate (Box 0) -- tries: 2602; # Accept: 1347; % Accept : 51.7679; Max Amt.: 1.00638
Molecule Transfer (Box 0 -> Box 1) -- tries: 9839; # Accept: 982; % Accept : 9.98069
Volume Transfer (Box 0 -> Box 1) -- tries: 1042; # Accept: 556; % Accept : 53.3589; Max Amt.: 1874.32


------------------------
--    ==========      --
--  === BOX 1  ===    --
--    ==========      --
------------------------

Volume: 460896 A^3
Tot # mol: 138

Molecule Type XE
-------------------
Number: 92 ;
Density: 0.0435187 g/ml

Molecule Type C2P
-------------------
Number: 46 ;
Density: 0.00498353 g/ml

Energy (in K): total: -8116.55

Displace (Box 1) -- tries: 36889; # Accept: 21882; % Accept : 59.3185; Max Amt.: 38.6223
Rotate (Box 1) -- tries: 2465; # Accept: 2130; % Accept : 86.4097; Max Amt.: 3.14159
Molecule Transfer (Box 1 -> Box 0) -- tries: 10195; # Accept: 1844; % Accept : 18.0873
Volume Transfer (Box 1 -> Box 0) -- tries: 0; # Accept: 0; % Accept : -nan; Max Amt.: 500

------------------------
--    ==========      --
--  === SYSTEM ===    --
--    ==========      --
------------------------

Energy (in K): total: -2.25194e+06

Steps/sec. : 6086.43
STEP 199999 of 1000000 (19.9999% done)


------------------------
--    ==========      --
--  === BOX 0  ===    --
--    ==========      --
------------------------

Volume: 176307 A^3
Tot # mol: 1926

Molecule Type XE
-------------------
Number: 953 ;
Density: 1.17846 g/ml

Molecule Type C2P
-------------------
Number: 973 ;
Density: 0.275566 g/ml

Energy (in K): total: -2.48657e+06

Displace (Box 0) -- tries: 73956; # Accept: 36485; % Accept : 49.3334; Max Amt.: 0.362962
Rotate (Box 0) -- tries: 5071; # Accept: 2616; % Accept : 51.5875; Max Amt.: 0.946846
Molecule Transfer (Box 0 -> Box 1) -- tries: 19797; # Accept: 1258; % Accept : 6.3545
Volume Transfer (Box 0 -> Box 1) -- tries: 2065; # Accept: 1103; % Accept : 53.414; Max Amt.: 1554.96


------------------------
--    ==========      --
--  === BOX 1  ===    --
--    ==========      --
------------------------

Volume: 464620 A^3
Tot # mol: 74

Molecule Type XE
-------------------
Number: 47 ;
Density: 0.0220542 g/ml

Molecule Type C2P
-------------------
Number: 27 ;
Density: 0.00290167 g/ml

Energy (in K): total: -2483.57

Displace (Box 1) -- tries: 73892; # Accept: 50694; % Accept : 68.6055; Max Amt.: 38.726
Rotate (Box 1) -- tries: 5051; # Accept: 4590; % Accept : 90.8731; Max Amt.: 3.14159
Molecule Transfer (Box 1 -> Box 0) -- tries: 20168; # Accept: 2184; % Accept : 10.829
Volume Transfer (Box 1 -> Box 0) -- tries: 0; # Accept: 0; % Accept : -nan; Max Amt.: 500

------------------------
--    ==========      --
--  === SYSTEM ===    --
--    ==========      --
------------------------

Energy (in K): total: -2.48905e+06

Steps/sec. : 5221.93
STEP 299999 of 1000000 (29.9999% done)


------------------------
--    ==========      --
--  === BOX 0  ===    --
--    ==========      --
------------------------

Volume: 173469 A^3
Tot # mol: 1909

Molecule Type XE
-------------------
Number: 940 ;
Density: 1.1814 g/ml

Molecule Type C2P
-------------------
Number: 969 ;
Density: 0.278923 g/ml

Energy (in K): total: -2.48893e+06

Displace (Box 0) -- tries: 111011; # Accept: 55042; % Accept : 49.5825; Max Amt.: 0.362151
Rotate (Box 0) -- tries: 7547; # Accept: 3895; % Accept : 51.6099; Max Amt.: 0.630803
Molecule Transfer (Box 0 -> Box 1) -- tries: 29858; # Accept: 1511; % Accept : 5.06062
Volume Transfer (Box 0 -> Box 1) -- tries: 3084; # Accept: 1662; % Accept : 53.8911; Max Amt.: 1857.25


------------------------
--    ==========      --
--  === BOX 1  ===    --
--    ==========      --
------------------------

Volume: 467458 A^3
Tot # mol: 91

Molecule Type XE
-------------------
Number: 60 ;
Density: 0.0279833 g/ml

Molecule Type C2P
-------------------
Number: 31 ;
Density: 0.00331132 g/ml

Energy (in K): total: -2362.05

Displace (Box 1) -- tries: 110688; # Accept: 79999; % Accept : 72.2743; Max Amt.: 38.8047
Rotate (Box 1) -- tries: 7594; # Accept: 7037; % Accept : 92.6653; Max Amt.: 3.14159
Molecule Transfer (Box 1 -> Box 0) -- tries: 30218; # Accept: 2420; % Accept : 8.00847
Volume Transfer (Box 1 -> Box 0) -- tries: 0; # Accept: 0; % Accept : -nan; Max Amt.: 500

------------------------
--    ==========      --
--  === SYSTEM ===    --
--    ==========      --
------------------------

Energy (in K): total: -2.49129e+06

Steps/sec. : 5162.62
STEP 399999 of 1000000 (39.9999% done)


------------------------
--    ==========      --
--  === BOX 0  ===    --
--    ==========      --
------------------------

Volume: 173300 A^3
Tot # mol: 1899

Molecule Type XE
-------------------
Number: 927 ;
Density: 1.1662 g/ml

Molecule Type C2P
-------------------
Number: 972 ;
Density: 0.28006 g/ml

Energy (in K): total: -2.49003e+06

Displace (Box 0) -- tries: 147910; # Accept: 73553; % Accept : 49.7282; Max Amt.: 0.402262
Rotate (Box 0) -- tries: 10021; # Accept: 5184; % Accept : 51.7314; Max Amt.: 0.927857
Molecule Transfer (Box 0 -> Box 1) -- tries: 39989; # Accept: 1734; % Accept : 4.33619
Volume Transfer (Box 0 -> Box 1) -- tries: 4067; # Accept: 2211; % Accept : 54.3644; Max Amt.: 1819.36


------------------------
--    ==========      --
--  === BOX 1  ===    --
--    ==========      --
------------------------

Volume: 467627 A^3
Tot # mol: 101

Molecule Type XE
-------------------
Number: 73 ;
Density: 0.034034 g/ml

Molecule Type C2P
-------------------
Number: 28 ;
Density: 0.00298979 g/ml

Energy (in K): total: -3420.66

Displace (Box 1) -- tries: 147807; # Accept: 109695; % Accept : 74.215; Max Amt.: 38.8094
Rotate (Box 1) -- tries: 10121; # Accept: 9464; % Accept : 93.5085; Max Amt.: 3.14159
Molecule Transfer (Box 1 -> Box 0) -- tries: 40085; # Accept: 2633; % Accept : 6.56854
Volume Transfer (Box 1 -> Box 0) -- tries: 0; # Accept: 0; % Accept : -nan; Max Amt.: 500

------------------------
--    ==========      --
--  === SYSTEM ===    --
--    ==========      --
------------------------

Energy (in K): total: -2.49345e+06

Steps/sec. : 5313.5
STEP 499999 of 1000000 (49.9999% done)


------------------------
--    ==========      --
--  === BOX 0  ===    --
--    ==========      --
------------------------

Volume: 172114 A^3
Tot # mol: 1905

Molecule Type XE
-------------------
Number: 932 ;
Density: 1.18057 g/ml

Molecule Type C2P
-------------------
Number: 973 ;
Density: 0.28228 g/ml

Energy (in K): total: -2.51895e+06

Displace (Box 0) -- tries: 184838; # Accept: 92044; % Accept : 49.7971; Max Amt.: 0.379687
Rotate (Box 0) -- tries: 12497; # Accept: 6464; % Accept : 51.7244; Max Amt.: 0.757051
Molecule Transfer (Box 0 -> Box 1) -- tries: 49799; # Accept: 1958; % Accept : 3.93181
Volume Transfer (Box 0 -> Box 1) -- tries: 5102; # Accept: 2778; % Accept : 54.4492; Max Amt.: 1445.44


------------------------
--    ==========      --
--  === BOX 1  ===    --
--    ==========      --
------------------------

Volume: 468813 A^3
Tot # mol: 95

Molecule Type XE
-------------------
Number: 68 ;
Density: 0.0316228 g/ml

Molecule Type C2P
-------------------
Number: 27 ;
Density: 0.00287572 g/ml

Energy (in K): total: -2908.12

Displace (Box 1) -- tries: 184925; # Accept: 139287; % Accept : 75.3208; Max Amt.: 38.8422
Rotate (Box 1) -- tries: 12711; # Accept: 11961; % Accept : 94.0996; Max Amt.: 3.14159
Molecule Transfer (Box 1 -> Box 0) -- tries: 50128; # Accept: 2863; % Accept : 5.71138
Volume Transfer (Box 1 -> Box 0) -- tries: 0; # Accept: 0; % Accept : -nan; Max Amt.: 500

------------------------
--    ==========      --
--  === SYSTEM ===    --
--    ==========      --
------------------------

Energy (in K): total: -2.52186e+06

Steps/sec. : 5091.65
STEP 599999 of 1000000 (59.9999% done)


------------------------
--    ==========      --
--  === BOX 0  ===    --
--    ==========      --
------------------------

Volume: 170715 A^3
Tot # mol: 1905

Molecule Type XE
-------------------
Number: 932 ;
Density: 1.19024 g/ml

Molecule Type C2P
-------------------
Number: 973 ;
Density: 0.284593 g/ml

Energy (in K): total: -2.53672e+06

Displace (Box 0) -- tries: 221839; # Accept: 110580; % Accept : 49.847; Max Amt.: 0.341504
Rotate (Box 0) -- tries: 14996; # Accept: 7756; % Accept : 51.7205; Max Amt.: 0.835528
Molecule Transfer (Box 0 -> Box 1) -- tries: 59778; # Accept: 2179; % Accept : 3.64515
Volume Transfer (Box 0 -> Box 1) -- tries: 6131; # Accept: 3339; % Accept : 54.4609; Max Amt.: 964.559


------------------------
--    ==========      --
--  === BOX 1  ===    --
--    ==========      --
------------------------

Volume: 470212 A^3
Tot # mol: 95

Molecule Type XE
-------------------
Number: 68 ;
Density: 0.0315287 g/ml

Molecule Type C2P
-------------------
Number: 27 ;
Density: 0.00286716 g/ml

Energy (in K): total: -5659.62

Displace (Box 1) -- tries: 221925; # Accept: 168916; % Accept : 76.114; Max Amt.: 38.8808
Rotate (Box 1) -- tries: 15179; # Accept: 14336; % Accept : 94.4463; Max Amt.: 3.14159
Molecule Transfer (Box 1 -> Box 0) -- tries: 60152; # Accept: 3084; % Accept : 5.12701
Volume Transfer (Box 1 -> Box 0) -- tries: 0; # Accept: 0; % Accept : -nan; Max Amt.: 500

------------------------
--    ==========      --
--  === SYSTEM ===    --
--    ==========      --
------------------------

Energy (in K): total: -2.54238e+06

Steps/sec. : 5112.47
STEP 699999 of 1000000 (69.9999% done)


------------------------
--    ==========      --
--  === BOX 0  ===    --
--    ==========      --
------------------------

Volume: 171049 A^3
Tot # mol: 1908

Molecule Type XE
-------------------
Number: 931 ;
Density: 1.18664 g/ml

Molecule Type C2P
-------------------
Number: 977 ;
Density: 0.285204 g/ml

Energy (in K): total: -2.56123e+06

Displace (Box 0) -- tries: 259010; # Accept: 129257; % Accept : 49.9043; Max Amt.: 0.408316
Rotate (Box 0) -- tries: 17521; # Accept: 9067; % Accept : 51.7493; Max Amt.: 0.715069
Molecule Transfer (Box 0 -> Box 1) -- tries: 69755; # Accept: 2366; % Accept : 3.39187
Volume Transfer (Box 0 -> Box 1) -- tries: 7148; # Accept: 3888; % Accept : 54.3928; Max Amt.: 2633.44


------------------------
--    ==========      --
--  === BOX 1  ===    --
--    ==========      --
------------------------

Volume: 469878 A^3
Tot # mol: 92

Molecule Type XE
-------------------
Number: 69 ;
Density: 0.0320151 g/ml

Molecule Type C2P
-------------------
Number: 23 ;
Density: 0.00244414 g/ml

Energy (in K): total: -3014.02

Displace (Box 1) -- tries: 258898; # Accept: 198089; % Accept : 76.5124; Max Amt.: 38.8715
Rotate (Box 1) -- tries: 17680; # Accept: 16736; % Accept : 94.6606; Max Amt.: 3.14159
Molecule Transfer (Box 1 -> Box 0) -- tries: 69988; # Accept: 3274; % Accept : 4.67794
Volume Transfer (Box 1 -> Box 0) -- tries: 0; # Accept: 0; % Accept : -nan; Max Amt.: 500

------------------------
--    ==========      --
--  === SYSTEM ===    --
--    ==========      --
------------------------

Energy (in K): total: -2.56424e+06

Steps/sec. : 5146.68
STEP 799999 of 1000000 (79.9999% done)


------------------------
--    ==========      --
--  === BOX 0  ===    --
--    ==========      --
------------------------

Volume: 172076 A^3
Tot # mol: 1904

Molecule Type XE
-------------------
Number: 933 ;
Density: 1.18209 g/ml

Molecule Type C2P
-------------------
Number: 971 ;
Density: 0.281761 g/ml

Energy (in K): total: -2.52053e+06

Displace (Box 0) -- tries: 296215; # Accept: 147886; % Accept : 49.9252; Max Amt.: 0.375442
Rotate (Box 0) -- tries: 20085; # Accept: 10393; % Accept : 51.7451; Max Amt.: 1.43309
Molecule Transfer (Box 0 -> Box 1) -- tries: 79736; # Accept: 2603; % Accept : 3.26452
Volume Transfer (Box 0 -> Box 1) -- tries: 8156; # Accept: 4424; % Accept : 54.2423; Max Amt.: 329.954


------------------------
--    ==========      --
--  === BOX 1  ===    --
--    ==========      --
------------------------

Volume: 468851 A^3
Tot # mol: 96

Molecule Type XE
-------------------
Number: 67 ;
Density: 0.0311552 g/ml

Molecule Type C2P
-------------------
Number: 29 ;
Density: 0.00308849 g/ml

Energy (in K): total: -2230.25

Displace (Box 1) -- tries: 295680; # Accept: 227385; % Accept : 76.9024; Max Amt.: 38.8432
Rotate (Box 1) -- tries: 20144; # Accept: 19102; % Accept : 94.8272; Max Amt.: 3.14159
Molecule Transfer (Box 1 -> Box 0) -- tries: 79984; # Accept: 3507; % Accept : 4.38463
Volume Transfer (Box 1 -> Box 0) -- tries: 0; # Accept: 0; % Accept : -nan; Max Amt.: 500

------------------------
--    ==========      --
--  === SYSTEM ===    --
--    ==========      --
------------------------

Energy (in K): total: -2.52276e+06

Steps/sec. : 5202.91
STEP 899999 of 1000000 (89.9999% done)


------------------------
--    ==========      --
--  === BOX 0  ===    --
--    ==========      --
------------------------

Volume: 170985 A^3
Tot # mol: 1904

Molecule Type XE
-------------------
Number: 937 ;
Density: 1.19474 g/ml

Molecule Type C2P
-------------------
Number: 967 ;
Density: 0.282391 g/ml

Energy (in K): total: -2.52813e+06

Displace (Box 0) -- tries: 333278; # Accept: 166472; % Accept : 49.9499; Max Amt.: 0.396211
Rotate (Box 0) -- tries: 22501; # Accept: 11644; % Accept : 51.7488; Max Amt.: 0.903812
Molecule Transfer (Box 0 -> Box 1) -- tries: 89801; # Accept: 2802; % Accept : 3.12023
Volume Transfer (Box 0 -> Box 1) -- tries: 9097; # Accept: 4944; % Accept : 54.3476; Max Amt.: 1335.66


------------------------
--    ==========      --
--  === BOX 1  ===    --
--    ==========      --
------------------------

Volume: 469942 A^3
Tot # mol: 96

Molecule Type XE
-------------------
Number: 63 ;
Density: 0.0292272 g/ml

Molecule Type C2P
-------------------
Number: 33 ;
Density: 0.00350633 g/ml

Energy (in K): total: -3563.59

Displace (Box 1) -- tries: 332693; # Accept: 256440; % Accept : 77.0801; Max Amt.: 38.8733
Rotate (Box 1) -- tries: 22565; # Accept: 21429; % Accept : 94.9657; Max Amt.: 3.14159
Molecule Transfer (Box 1 -> Box 0) -- tries: 90065; # Accept: 3706; % Accept : 4.11481
Volume Transfer (Box 1 -> Box 0) -- tries: 0; # Accept: 0; % Accept : -nan; Max Amt.: 500

------------------------
--    ==========      --
--  === SYSTEM ===    --
--    ==========      --
------------------------

Energy (in K): total: -2.53169e+06

Steps/sec. : 5500.55
STEP 999999 of 1000000 (99.9999% done)


------------------------
--    ==========      --
--  === BOX 0  ===    --
--    ==========      --
------------------------

Volume: 169308 A^3
Tot # mol: 1910

Molecule Type XE
-------------------
Number: 940 ;
Density: 1.21043 g/ml

Molecule Type C2P
-------------------
Number: 970 ;
Density: 0.286073 g/ml

Energy (in K): total: -2.5664e+06

Displace (Box 0) -- tries: 370504; # Accept: 185126; % Accept : 49.966; Max Amt.: 0.370217
Rotate (Box 0) -- tries: 25019; # Accept: 12931; % Accept : 51.6847; Max Amt.: 0.973435
Molecule Transfer (Box 0 -> Box 1) -- tries: 99825; # Accept: 2970; % Accept : 2.97521
Volume Transfer (Box 0 -> Box 1) -- tries: 10136; # Accept: 5505; % Accept : 54.3114; Max Amt.: 1173.5


------------------------
--    ==========      --
--  === BOX 1  ===    --
--    ==========      --
------------------------

Volume: 471619 A^3
Tot # mol: 90

Molecule Type XE
-------------------
Number: 60 ;
Density: 0.0277365 g/ml

Molecule Type C2P
-------------------
Number: 30 ;
Density: 0.00317624 g/ml

Energy (in K): total: -2645.5

Displace (Box 1) -- tries: 369561; # Accept: 285920; % Accept : 77.3675; Max Amt.: 38.9195
Rotate (Box 1) -- tries: 24908; # Accept: 23703; % Accept : 95.1622; Max Amt.: 3.14159
Molecule Transfer (Box 1 -> Box 0) -- tries: 100047; # Accept: 3880; % Accept : 3.87818
Volume Transfer (Box 1 -> Box 0) -- tries: 0; # Accept: 0; % Accept : -nan; Max Amt.: 500

------------------------
--    ==========      --
--  === SYSTEM ===    --
--    ==========      --
------------------------

Energy (in K): total: -2.56904e+06

Simulation Time (total): 189.54sec.
