GOMC Serial Version 0.97
Started at: Sun Aug 23 21:08:16 2015
On hostname: potoff44.eng.wayne.edu

------------------------------------------------------
This code was compiled to support the Gibbs ensemble.
------------------------------------------------------

Warning: Output fluctuation has been set off, energy ouput for fluctuation will be ignored!
Warning: Output fluctuation has been set off, pressure ouput for fluctuation will be ignored!
Warning: Output fluctuation has been set off, molecule number ouput for fluctuation will be ignored!
Warning: Output fluctuation has been set off, accept angles ouput for fluctuation will be ignored!
Warning: Output fluctuation has been set off, density ouput for fluctuation will be ignored!
Reading from CHARMM-Style Parameter File file: ./Par_TraPPE_Alkanes_CHARMM.inp

Finished reading CHARMM-Style Parameter File file: ./Par_TraPPE_Alkanes_CHARMM.inp

Reading from Box 1 PDB coordinate file file: ./STEP3_START_NEO_sys_BOX_0.pdb

Finished reading Box 1 PDB coordinate file file: ./STEP3_START_NEO_sys_BOX_0.pdb

Reading from Box 2 PDB coordinate file file: ./STEP3_START_NEO_sys_BOX_1.pdb

Finished reading Box 2 PDB coordinate file file: ./STEP3_START_NEO_sys_BOX_1.pdb

Molecules in PSF:

Molecule Kind: NEO
Idx	name	type	charge	mass
0	C1	CT	0	12.011
1	C2	CH3	0	15.035
2	C3	CH3	0	15.035
3	C4	CH3	0	15.035
4	C5	CH3	0	15.035

Bonds:
[0 1] [0 2] [0 3] [0 4] 

Angles:
[1 0 4] [1 0 3] [1 0 2] [2 0 4] [2 0 3] [3 0 4] 

Dihedrals:

REMAINDER! 1-4 Interaction is OFF

Min. Box Size: 8000.1
STARTING SIMULATION!!


------------------------
--    ==========      --
--  === BOX 0  ===    --
--    ==========      --
------------------------

Volume: 494914 A^3
Tot # mol: 500

Molecule Type NEO
-------------------
Number: 500 ;
Density: 0.121041 g/ml

Energy (in K): total: 7.80518e+06


------------------------
--    ==========      --
--  === BOX 1  ===    --
--    ==========      --
------------------------

Volume: 563560 A^3
Tot # mol: 500

Molecule Type NEO
-------------------
Number: 500 ;
Density: 0.106297 g/ml

Energy (in K): total: 8.46944e+06

------------------------
--    ==========      --
--  === SYSTEM ===    --
--    ==========      --
------------------------

Energy (in K): total: 1.62746e+07

Printed combined psf to file neopentane_360_00_K.psf
STEP 99999 of 1000000 (9.9999% done)


------------------------
--    ==========      --
--  === BOX 0  ===    --
--    ==========      --
------------------------

Volume: 420823 A^3
Tot # mol: 615

Molecule Type NEO
-------------------
Number: 615 ;
Density: 0.175092 g/ml

Energy (in K): total: 53123.7

Displace (Box 0) -- tries: 34447; # Accept: 16828; % Accept : 48.8519; Max Amt.: 1.21875
Rotate (Box 0) -- tries: 5080; # Accept: 3163; % Accept : 62.2638; Max Amt.: 3.14159
Molecule Transfer (Box 0 -> Box 1) -- tries: 10018; # Accept: 2269; % Accept : 22.6492
Volume Transfer (Box 0 -> Box 1) -- tries: 1004; # Accept: 547; % Accept : 54.4821; Max Amt.: 2701.96


------------------------
--    ==========      --
--  === BOX 1  ===    --
--    ==========      --
------------------------

Volume: 637651 A^3
Tot # mol: 385

Molecule Type NEO
-------------------
Number: 385 ;
Density: 0.0723385 g/ml

Energy (in K): total: 180416

Displace (Box 1) -- tries: 34431; # Accept: 16947; % Accept : 49.2202; Max Amt.: 2.7281
Rotate (Box 1) -- tries: 5041; # Accept: 3651; % Accept : 72.4261; Max Amt.: 3.14159
Molecule Transfer (Box 1 -> Box 0) -- tries: 9979; # Accept: 2384; % Accept : 23.8902
Volume Transfer (Box 1 -> Box 0) -- tries: 0; # Accept: 0; % Accept : -nan; Max Amt.: 500

------------------------
--    ==========      --
--  === SYSTEM ===    --
--    ==========      --
------------------------

Energy (in K): total: 233540

Steps/sec. : 6157.64
STEP 199999 of 1000000 (19.9999% done)


------------------------
--    ==========      --
--  === BOX 0  ===    --
--    ==========      --
------------------------

Volume: 356329 A^3
Tot # mol: 739

Molecule Type NEO
-------------------
Number: 739 ;
Density: 0.248476 g/ml

Energy (in K): total: -71984.5

Displace (Box 0) -- tries: 69070; # Accept: 34163; % Accept : 49.4614; Max Amt.: 1.00615
Rotate (Box 0) -- tries: 10054; # Accept: 5780; % Accept : 57.4896; Max Amt.: 2.08798
Molecule Transfer (Box 0 -> Box 1) -- tries: 20056; # Accept: 4390; % Accept : 21.8887
Volume Transfer (Box 0 -> Box 1) -- tries: 1996; # Accept: 1084; % Accept : 54.3086; Max Amt.: 5834.37


------------------------
--    ==========      --
--  === BOX 1  ===    --
--    ==========      --
------------------------

Volume: 702144 A^3
Tot # mol: 261

Molecule Type NEO
-------------------
Number: 261 ;
Density: 0.0445354 g/ml

Energy (in K): total: 174065

Displace (Box 1) -- tries: 68749; # Accept: 34309; % Accept : 49.9047; Max Amt.: 6.94797
Rotate (Box 1) -- tries: 9984; # Accept: 7656; % Accept : 76.6827; Max Amt.: 3.14159
Molecule Transfer (Box 1 -> Box 0) -- tries: 20091; # Accept: 4629; % Accept : 23.0402
Volume Transfer (Box 1 -> Box 0) -- tries: 0; # Accept: 0; % Accept : -nan; Max Amt.: 500

------------------------
--    ==========      --
--  === SYSTEM ===    --
--    ==========      --
------------------------

Energy (in K): total: 102081

Steps/sec. : 5296.61
STEP 299999 of 1000000 (29.9999% done)


------------------------
--    ==========      --
--  === BOX 0  ===    --
--    ==========      --
------------------------

Volume: 320106 A^3
Tot # mol: 855

Molecule Type NEO
-------------------
Number: 855 ;
Density: 0.32001 g/ml

Energy (in K): total: -271872

Displace (Box 0) -- tries: 103344; # Accept: 51279; % Accept : 49.6197; Max Amt.: 0.691994
Rotate (Box 0) -- tries: 15130; # Accept: 8341; % Accept : 55.1289; Max Amt.: 1.5152
Molecule Transfer (Box 0 -> Box 1) -- tries: 29985; # Accept: 6234; % Accept : 20.7904
Volume Transfer (Box 0 -> Box 1) -- tries: 3027; # Accept: 1649; % Accept : 54.4764; Max Amt.: 2371.89


------------------------
--    ==========      --
--  === BOX 1  ===    --
--    ==========      --
------------------------

Volume: 738368 A^3
Tot # mol: 145

Molecule Type NEO
-------------------
Number: 145 ;
Density: 0.0235281 g/ml

Energy (in K): total: 100612

Displace (Box 1) -- tries: 103323; # Accept: 54957; % Accept : 53.1895; Max Amt.: 45.1919
Rotate (Box 1) -- tries: 15038; # Accept: 12295; % Accept : 81.7595; Max Amt.: 3.14159
Molecule Transfer (Box 1 -> Box 0) -- tries: 30153; # Accept: 6589; % Accept : 21.8519
Volume Transfer (Box 1 -> Box 0) -- tries: 0; # Accept: 0; % Accept : -nan; Max Amt.: 500

------------------------
--    ==========      --
--  === SYSTEM ===    --
--    ==========      --
------------------------

Energy (in K): total: -171260

Steps/sec. : 3607.5
STEP 399999 of 1000000 (39.9999% done)


------------------------
--    ==========      --
--  === BOX 0  ===    --
--    ==========      --
------------------------

Volume: 306915 A^3
Tot # mol: 845

Molecule Type NEO
-------------------
Number: 845 ;
Density: 0.329861 g/ml

Energy (in K): total: -261860

Displace (Box 0) -- tries: 137832; # Accept: 68579; % Accept : 49.7555; Max Amt.: 0.725009
Rotate (Box 0) -- tries: 20007; # Accept: 10826; % Accept : 54.1111; Max Amt.: 3.14159
Molecule Transfer (Box 0 -> Box 1) -- tries: 40015; # Accept: 8092; % Accept : 20.2224
Volume Transfer (Box 0 -> Box 1) -- tries: 4005; # Accept: 2172; % Accept : 54.2322; Max Amt.: 4987.12


------------------------
--    ==========      --
--  === BOX 1  ===    --
--    ==========      --
------------------------

Volume: 751559 A^3
Tot # mol: 155

Molecule Type NEO
-------------------
Number: 155 ;
Density: 0.0247093 g/ml

Energy (in K): total: 122153

Displace (Box 1) -- tries: 137938; # Accept: 77597; % Accept : 56.255; Max Amt.: 45.4595
Rotate (Box 1) -- tries: 19985; # Accept: 16923; % Accept : 84.6785; Max Amt.: 3.14159
Molecule Transfer (Box 1 -> Box 0) -- tries: 40218; # Accept: 8437; % Accept : 20.9782
Volume Transfer (Box 1 -> Box 0) -- tries: 0; # Accept: 0; % Accept : -nan; Max Amt.: 500

------------------------
--    ==========      --
--  === SYSTEM ===    --
--    ==========      --
------------------------

Energy (in K): total: -139708

Steps/sec. : 3431.71
STEP 499999 of 1000000 (49.9999% done)


------------------------
--    ==========      --
--  === BOX 0  ===    --
--    ==========      --
------------------------

Volume: 278431 A^3
Tot # mol: 871

Molecule Type NEO
-------------------
Number: 871 ;
Density: 0.374793 g/ml

Energy (in K): total: -428909

Displace (Box 0) -- tries: 172494; # Accept: 85957; % Accept : 49.8319; Max Amt.: 0.736546
Rotate (Box 0) -- tries: 25096; # Accept: 13383; % Accept : 53.3272; Max Amt.: 1.39121
Molecule Transfer (Box 0 -> Box 1) -- tries: 50070; # Accept: 9860; % Accept : 19.6924
Volume Transfer (Box 0 -> Box 1) -- tries: 4979; # Accept: 2673; % Accept : 53.6855; Max Amt.: 4654.17


------------------------
--    ==========      --
--  === BOX 1  ===    --
--    ==========      --
------------------------

Volume: 780042 A^3
Tot # mol: 129

Molecule Type NEO
-------------------
Number: 129 ;
Density: 0.0198136 g/ml

Energy (in K): total: 107258

Displace (Box 1) -- tries: 172275; # Accept: 99978; % Accept : 58.034; Max Amt.: 46.0267
Rotate (Box 1) -- tries: 24972; # Accept: 21600; % Accept : 86.4969; Max Amt.: 3.14159
Molecule Transfer (Box 1 -> Box 0) -- tries: 50114; # Accept: 10231; % Accept : 20.4155
Volume Transfer (Box 1 -> Box 0) -- tries: 0; # Accept: 0; % Accept : -nan; Max Amt.: 500

------------------------
--    ==========      --
--  === SYSTEM ===    --
--    ==========      --
------------------------

Energy (in K): total: -321651

Steps/sec. : 3407.16
STEP 599999 of 1000000 (59.9999% done)


------------------------
--    ==========      --
--  === BOX 0  ===    --
--    ==========      --
------------------------

Volume: 257562 A^3
Tot # mol: 869

Molecule Type NEO
-------------------
Number: 869 ;
Density: 0.404231 g/ml

Energy (in K): total: -506260

Displace (Box 0) -- tries: 206982; # Accept: 103230; % Accept : 49.8739; Max Amt.: 0.704184
Rotate (Box 0) -- tries: 30108; # Accept: 15917; % Accept : 52.8663; Max Amt.: 0.877249
Molecule Transfer (Box 0 -> Box 1) -- tries: 60224; # Accept: 11506; % Accept : 19.1053
Volume Transfer (Box 0 -> Box 1) -- tries: 5988; # Accept: 3206; % Accept : 53.5404; Max Amt.: 2026.22


------------------------
--    ==========      --
--  === BOX 1  ===    --
--    ==========      --
------------------------

Volume: 800912 A^3
Tot # mol: 131

Molecule Type NEO
-------------------
Number: 131 ;
Density: 0.0195965 g/ml

Energy (in K): total: 106194

Displace (Box 1) -- tries: 206525; # Accept: 123634; % Accept : 59.8639; Max Amt.: 46.4335
Rotate (Box 1) -- tries: 30009; # Accept: 26391; % Accept : 87.9436; Max Amt.: 3.14159
Molecule Transfer (Box 1 -> Box 0) -- tries: 60164; # Accept: 11875; % Accept : 19.7377
Volume Transfer (Box 1 -> Box 0) -- tries: 0; # Accept: 0; % Accept : -nan; Max Amt.: 500

------------------------
--    ==========      --
--  === SYSTEM ===    --
--    ==========      --
------------------------

Energy (in K): total: -400067

Steps/sec. : 3200
STEP 699999 of 1000000 (69.9999% done)


------------------------
--    ==========      --
--  === BOX 0  ===    --
--    ==========      --
------------------------

Volume: 242053 A^3
Tot # mol: 862

Molecule Type NEO
-------------------
Number: 862 ;
Density: 0.426667 g/ml

Energy (in K): total: -541050

Displace (Box 0) -- tries: 241574; # Accept: 120543; % Accept : 49.899; Max Amt.: 0.628712
Rotate (Box 0) -- tries: 35024; # Accept: 18411; % Accept : 52.5668; Max Amt.: 1.217
Molecule Transfer (Box 0 -> Box 1) -- tries: 70195; # Accept: 12795; % Accept : 18.2278
Volume Transfer (Box 0 -> Box 1) -- tries: 6969; # Accept: 3736; % Accept : 53.6088; Max Amt.: 5177.77


------------------------
--    ==========      --
--  === BOX 1  ===    --
--    ==========      --
------------------------

Volume: 816421 A^3
Tot # mol: 138

Molecule Type NEO
-------------------
Number: 138 ;
Density: 0.0202515 g/ml

Energy (in K): total: 105509

Displace (Box 1) -- tries: 241096; # Accept: 147167; % Accept : 61.0408; Max Amt.: 46.7313
Rotate (Box 1) -- tries: 35022; # Accept: 31157; % Accept : 88.9641; Max Amt.: 3.14159
Molecule Transfer (Box 1 -> Box 0) -- tries: 70120; # Accept: 13157; % Accept : 18.7635
Volume Transfer (Box 1 -> Box 0) -- tries: 0; # Accept: 0; % Accept : -nan; Max Amt.: 500

------------------------
--    ==========      --
--  === SYSTEM ===    --
--    ==========      --
------------------------

Energy (in K): total: -435541

Steps/sec. : 3176.62
STEP 799999 of 1000000 (79.9999% done)


------------------------
--    ==========      --
--  === BOX 0  ===    --
--    ==========      --
------------------------

Volume: 228931 A^3
Tot # mol: 865

Molecule Type NEO
-------------------
Number: 865 ;
Density: 0.452693 g/ml

Energy (in K): total: -606485

Displace (Box 0) -- tries: 276194; # Accept: 137874; % Accept : 49.9193; Max Amt.: 0.558219
Rotate (Box 0) -- tries: 40061; # Accept: 20982; % Accept : 52.3751; Max Amt.: 1.30699
Molecule Transfer (Box 0 -> Box 1) -- tries: 80119; # Accept: 13815; % Accept : 17.2431
Volume Transfer (Box 0 -> Box 1) -- tries: 7988; # Accept: 4289; % Accept : 53.693; Max Amt.: 2468.91


------------------------
--    ==========      --
--  === BOX 1  ===    --
--    ==========      --
------------------------

Volume: 829543 A^3
Tot # mol: 135

Molecule Type NEO
-------------------
Number: 135 ;
Density: 0.0194978 g/ml

Energy (in K): total: 108337

Displace (Box 1) -- tries: 275614; # Accept: 171091; % Accept : 62.0763; Max Amt.: 46.9804
Rotate (Box 1) -- tries: 39961; # Accept: 35847; % Accept : 89.705; Max Amt.: 3.14159
Molecule Transfer (Box 1 -> Box 0) -- tries: 80063; # Accept: 14180; % Accept : 17.7111
Volume Transfer (Box 1 -> Box 0) -- tries: 0; # Accept: 0; % Accept : -nan; Max Amt.: 500

------------------------
--    ==========      --
--  === SYSTEM ===    --
--    ==========      --
------------------------

Energy (in K): total: -498148

Steps/sec. : 3004.81
STEP 899999 of 1000000 (89.9999% done)


------------------------
--    ==========      --
--  === BOX 0  ===    --
--    ==========      --
------------------------

Volume: 215233 A^3
Tot # mol: 851

Molecule Type NEO
-------------------
Number: 851 ;
Density: 0.47371 g/ml

Energy (in K): total: -659432

Displace (Box 0) -- tries: 310420; # Accept: 155044; % Accept : 49.9465; Max Amt.: 0.610189
Rotate (Box 0) -- tries: 45027; # Accept: 23504; % Accept : 52.1998; Max Amt.: 1.20038
Molecule Transfer (Box 0 -> Box 1) -- tries: 90193; # Accept: 14739; % Accept : 16.3416
Volume Transfer (Box 0 -> Box 1) -- tries: 9002; # Accept: 4835; % Accept : 53.7103; Max Amt.: 2258.06


------------------------
--    ==========      --
--  === BOX 1  ===    --
--    ==========      --
------------------------

Volume: 843241 A^3
Tot # mol: 149

Molecule Type NEO
-------------------
Number: 149 ;
Density: 0.0211703 g/ml

Energy (in K): total: 116448

Displace (Box 1) -- tries: 310224; # Accept: 194446; % Accept : 62.6792; Max Amt.: 47.2375
Rotate (Box 1) -- tries: 45025; # Accept: 40665; % Accept : 90.3165; Max Amt.: 3.14159
Molecule Transfer (Box 1 -> Box 0) -- tries: 90109; # Accept: 15090; % Accept : 16.7464
Volume Transfer (Box 1 -> Box 0) -- tries: 0; # Accept: 0; % Accept : -nan; Max Amt.: 500

------------------------
--    ==========      --
--  === SYSTEM ===    --
--    ==========      --
------------------------

Energy (in K): total: -542984

Steps/sec. : 2918
STEP 999999 of 1000000 (99.9999% done)


------------------------
--    ==========      --
--  === BOX 0  ===    --
--    ==========      --
------------------------

Volume: 210932 A^3
Tot # mol: 813

Molecule Type NEO
-------------------
Number: 813 ;
Density: 0.461784 g/ml

Energy (in K): total: -581939

Displace (Box 0) -- tries: 345048; # Accept: 172406; % Accept : 49.9658; Max Amt.: 0.58988
Rotate (Box 0) -- tries: 49914; # Accept: 25987; % Accept : 52.0635; Max Amt.: 0.758377
Molecule Transfer (Box 0 -> Box 1) -- tries: 100183; # Accept: 15583; % Accept : 15.5545
Volume Transfer (Box 0 -> Box 1) -- tries: 10014; # Accept: 5378; % Accept : 53.7048; Max Amt.: 2314.98


------------------------
--    ==========      --
--  === BOX 1  ===    --
--    ==========      --
------------------------

Volume: 847541 A^3
Tot # mol: 187

Molecule Type NEO
-------------------
Number: 187 ;
Density: 0.0264346 g/ml

Energy (in K): total: 140700

Displace (Box 1) -- tries: 344812; # Accept: 217145; % Accept : 62.9749; Max Amt.: 47.3177
Rotate (Box 1) -- tries: 49939; # Accept: 45285; % Accept : 90.6806; Max Amt.: 3.14159
Molecule Transfer (Box 1 -> Box 0) -- tries: 100090; # Accept: 15896; % Accept : 15.8817
Volume Transfer (Box 1 -> Box 0) -- tries: 0; # Accept: 0; % Accept : -nan; Max Amt.: 500

------------------------
--    ==========      --
--  === SYSTEM ===    --
--    ==========      --
------------------------

Energy (in K): total: -441240

Simulation Time (total): 290.44sec.
