GOMC Serial Version 0.97
Started at: Fri Aug 21 18:56:00 2015
On hostname: potoff33.eng.wayne.edu

------------------------------------------------------
This code was compiled to support the grand canonical ensemble.
------------------------------------------------------

Reading from CHARMM-Style Parameter File file: ./Par_TraPPE_Alkanes_CHARMM.inp

Finished reading CHARMM-Style Parameter File file: ./Par_TraPPE_Alkanes_CHARMM.inp

Reading from Box 1 PDB coordinate file file: ./STEP3_START_ISB_vap_BOX_0.pdb

Finished reading Box 1 PDB coordinate file file: ./STEP3_START_ISB_vap_BOX_0.pdb

Reading from Box 2 PDB coordinate file file: ./STEP3_START_ISB_reservoir_BOX_1.pdb

Finished reading Box 2 PDB coordinate file file: ./STEP3_START_ISB_reservoir_BOX_1.pdb

REMARINDER! 1-4 Interaction and more is OFF

Min. Box Size: 8000.1
STARTING SIMULATION!!


------------------------
--    ==========      --
--  === BOX 0  ===    --
--    ==========      --
------------------------

Volume: 27000 A^3
Tot # mol: 2

Molecule Type ISB
-------------------
Number: 2 ;
Density: 0.00714942 g/ml

Energy (in K): total: 206.45


------------------------
--    ==========      --
--  === BOX 1  ===    --
--    ==========      --
------------------------

Volume: 27000 A^3
Tot # mol: 600

Molecule Type ISB
-------------------
Number: 600 ;
Density: 2.14483 g/ml

Energy (in K): total: 109689

------------------------
--    ==========      --
--  === SYSTEM ===    --
--    ==========      --
------------------------

Energy (in K): total: 109895

Printed combined psf to file ISB_410_00_K_u_3135_r1a.psf
STEP 99999 of 1000000 (9.9999% done)


------------------------
--    ==========      --
--  === BOX 0  ===    --
--    ==========      --
------------------------

Volume: 27000 A^3
Tot # mol: 26

Molecule Type ISB
-------------------
Number: 26 ;
Density: 0.0929425 g/ml

Energy (in K): total: 11228.9

Displace (Box 0) -- tries: 19857; # Accept: 9966; % Accept : 50.1889; Max Amt.: 2.28733
Rotate (Box 0) -- tries: 10033; # Accept: 7070; % Accept : 70.4675; Max Amt.: 3.14159
Deletion (from Box 0) -- tries: 35082; # Accept: 16633; % Accept : 47.4118


------------------------
--    ==========      --
--  === BOX 1  ===    --
--    ==========      --
------------------------

Volume: 27000 A^3
Tot # mol: 576

Molecule Type ISB
-------------------
Number: 576 ;
Density: 2.05903 g/ml

Energy (in K): total: 383716

Insertion (into Box 0) -- tries: 35028; # Accept: 16657; % Accept : 47.5534

------------------------
--    ==========      --
--  === SYSTEM ===    --
--    ==========      --
------------------------

Energy (in K): total: 394945

Steps/sec. : 4997.5
STEP 199999 of 1000000 (19.9999% done)


------------------------
--    ==========      --
--  === BOX 0  ===    --
--    ==========      --
------------------------

Volume: 27000 A^3
Tot # mol: 81

Molecule Type ISB
-------------------
Number: 81 ;
Density: 0.289552 g/ml

Energy (in K): total: -31542.4

Displace (Box 0) -- tries: 39770; # Accept: 20009; % Accept : 50.3118; Max Amt.: 0.97788
Rotate (Box 0) -- tries: 20003; # Accept: 13990; % Accept : 69.9395; Max Amt.: 3.14159
Deletion (from Box 0) -- tries: 70180; # Accept: 33205; % Accept : 47.314


------------------------
--    ==========      --
--  === BOX 1  ===    --
--    ==========      --
------------------------

Volume: 27000 A^3
Tot # mol: 521

Molecule Type ISB
-------------------
Number: 521 ;
Density: 1.86242 g/ml

Energy (in K): total: 342481

Insertion (into Box 0) -- tries: 70047; # Accept: 33284; % Accept : 47.5167

------------------------
--    ==========      --
--  === SYSTEM ===    --
--    ==========      --
------------------------

Energy (in K): total: 310938

Steps/sec. : 4899.56
STEP 299999 of 1000000 (29.9999% done)


------------------------
--    ==========      --
--  === BOX 0  ===    --
--    ==========      --
------------------------

Volume: 27000 A^3
Tot # mol: 30

Molecule Type ISB
-------------------
Number: 30 ;
Density: 0.107241 g/ml

Energy (in K): total: 7469.36

Displace (Box 0) -- tries: 59578; # Accept: 30131; % Accept : 50.574; Max Amt.: 2.57722
Rotate (Box 0) -- tries: 30082; # Accept: 20791; % Accept : 69.1144; Max Amt.: 3.14159
Deletion (from Box 0) -- tries: 105225; # Accept: 49242; % Accept : 46.7969


------------------------
--    ==========      --
--  === BOX 1  ===    --
--    ==========      --
------------------------

Volume: 27000 A^3
Tot # mol: 572

Molecule Type ISB
-------------------
Number: 572 ;
Density: 2.04473 g/ml

Energy (in K): total: 370252

Insertion (into Box 0) -- tries: 105115; # Accept: 49270; % Accept : 46.8725

------------------------
--    ==========      --
--  === SYSTEM ===    --
--    ==========      --
------------------------

Energy (in K): total: 377721

Steps/sec. : 4688.23
STEP 399999 of 1000000 (39.9999% done)


------------------------
--    ==========      --
--  === BOX 0  ===    --
--    ==========      --
------------------------

Volume: 27000 A^3
Tot # mol: 61

Molecule Type ISB
-------------------
Number: 61 ;
Density: 0.218057 g/ml

Energy (in K): total: -4143.18

Displace (Box 0) -- tries: 79649; # Accept: 40270; % Accept : 50.5593; Max Amt.: 1.31793
Rotate (Box 0) -- tries: 40076; # Accept: 28361; % Accept : 70.768; Max Amt.: 3.14159
Deletion (from Box 0) -- tries: 140224; # Accept: 67993; % Accept : 48.4888


------------------------
--    ==========      --
--  === BOX 1  ===    --
--    ==========      --
------------------------

Volume: 27000 A^3
Tot # mol: 541

Molecule Type ISB
-------------------
Number: 541 ;
Density: 1.93392 g/ml

Energy (in K): total: 345435

Insertion (into Box 0) -- tries: 140051; # Accept: 68052; % Accept : 48.5909

------------------------
--    ==========      --
--  === SYSTEM ===    --
--    ==========      --
------------------------

Energy (in K): total: 341292

Steps/sec. : 6381.62
STEP 499999 of 1000000 (49.9999% done)


------------------------
--    ==========      --
--  === BOX 0  ===    --
--    ==========      --
------------------------

Volume: 27000 A^3
Tot # mol: 46

Molecule Type ISB
-------------------
Number: 46 ;
Density: 0.164437 g/ml

Energy (in K): total: 2190.74

Displace (Box 0) -- tries: 99706; # Accept: 50476; % Accept : 50.6248; Max Amt.: 2.20859
Rotate (Box 0) -- tries: 50137; # Accept: 35440; % Accept : 70.6863; Max Amt.: 3.14159
Deletion (from Box 0) -- tries: 175183; # Accept: 84992; % Accept : 48.5161


------------------------
--    ==========      --
--  === BOX 1  ===    --
--    ==========      --
------------------------

Volume: 27000 A^3
Tot # mol: 556

Molecule Type ISB
-------------------
Number: 556 ;
Density: 1.98754 g/ml

Energy (in K): total: 365471

Insertion (into Box 0) -- tries: 174974; # Accept: 85036; % Accept : 48.5992

------------------------
--    ==========      --
--  === SYSTEM ===    --
--    ==========      --
------------------------

Energy (in K): total: 367662

Steps/sec. : 5211.05
STEP 599999 of 1000000 (59.9999% done)


------------------------
--    ==========      --
--  === BOX 0  ===    --
--    ==========      --
------------------------

Volume: 27000 A^3
Tot # mol: 51

Molecule Type ISB
-------------------
Number: 51 ;
Density: 0.18231 g/ml

Energy (in K): total: 1057.27

Displace (Box 0) -- tries: 119387; # Accept: 60457; % Accept : 50.6395; Max Amt.: 2.15896
Rotate (Box 0) -- tries: 60259; # Accept: 42774; % Accept : 70.9836; Max Amt.: 3.14159
Deletion (from Box 0) -- tries: 210234; # Accept: 102739; % Accept : 48.8689


------------------------
--    ==========      --
--  === BOX 1  ===    --
--    ==========      --
------------------------

Volume: 27000 A^3
Tot # mol: 551

Molecule Type ISB
-------------------
Number: 551 ;
Density: 1.96967 g/ml

Energy (in K): total: 335246

Insertion (into Box 0) -- tries: 210120; # Accept: 102788; % Accept : 48.9187

------------------------
--    ==========      --
--  === SYSTEM ===    --
--    ==========      --
------------------------

Energy (in K): total: 336303

Steps/sec. : 5491.49
STEP 699999 of 1000000 (69.9999% done)


------------------------
--    ==========      --
--  === BOX 0  ===    --
--    ==========      --
------------------------

Volume: 27000 A^3
Tot # mol: 51

Molecule Type ISB
-------------------
Number: 51 ;
Density: 0.18231 g/ml

Energy (in K): total: -1500.74

Displace (Box 0) -- tries: 139426; # Accept: 70638; % Accept : 50.6634; Max Amt.: 1.63475
Rotate (Box 0) -- tries: 70297; # Accept: 50455; % Accept : 71.774; Max Amt.: 3.14159
Deletion (from Box 0) -- tries: 245059; # Accept: 121510; % Accept : 49.584


------------------------
--    ==========      --
--  === BOX 1  ===    --
--    ==========      --
------------------------

Volume: 27000 A^3
Tot # mol: 551

Molecule Type ISB
-------------------
Number: 551 ;
Density: 1.96967 g/ml

Energy (in K): total: 355525

Insertion (into Box 0) -- tries: 245218; # Accept: 121559; % Accept : 49.5718

------------------------
--    ==========      --
--  === SYSTEM ===    --
--    ==========      --
------------------------

Energy (in K): total: 354025

Steps/sec. : 6455.78
STEP 799999 of 1000000 (79.9999% done)


------------------------
--    ==========      --
--  === BOX 0  ===    --
--    ==========      --
------------------------

Volume: 27000 A^3
Tot # mol: 46

Molecule Type ISB
-------------------
Number: 46 ;
Density: 0.164437 g/ml

Energy (in K): total: 6526.52

Displace (Box 0) -- tries: 159426; # Accept: 80832; % Accept : 50.7019; Max Amt.: 2.90164
Rotate (Box 0) -- tries: 80332; # Accept: 57008; % Accept : 70.9655; Max Amt.: 3.14159
Deletion (from Box 0) -- tries: 280094; # Accept: 137157; % Accept : 48.9682


------------------------
--    ==========      --
--  === BOX 1  ===    --
--    ==========      --
------------------------

Volume: 27000 A^3
Tot # mol: 556

Molecule Type ISB
-------------------
Number: 556 ;
Density: 1.98754 g/ml

Energy (in K): total: 375100

Insertion (into Box 0) -- tries: 280148; # Accept: 137201; % Accept : 48.9745

------------------------
--    ==========      --
--  === SYSTEM ===    --
--    ==========      --
------------------------

Energy (in K): total: 381626

Steps/sec. : 4440.5
STEP 899999 of 1000000 (89.9999% done)


------------------------
--    ==========      --
--  === BOX 0  ===    --
--    ==========      --
------------------------

Volume: 27000 A^3
Tot # mol: 78

Molecule Type ISB
-------------------
Number: 78 ;
Density: 0.278827 g/ml

Energy (in K): total: -20257.7

Displace (Box 0) -- tries: 179471; # Accept: 90892; % Accept : 50.6444; Max Amt.: 0.80007
Rotate (Box 0) -- tries: 90333; # Accept: 63999; % Accept : 70.8479; Max Amt.: 3.14159
Deletion (from Box 0) -- tries: 315102; # Accept: 153876; % Accept : 48.8337


------------------------
--    ==========      --
--  === BOX 1  ===    --
--    ==========      --
------------------------

Volume: 27000 A^3
Tot # mol: 524

Molecule Type ISB
-------------------
Number: 524 ;
Density: 1.87315 g/ml

Energy (in K): total: 331339

Insertion (into Box 0) -- tries: 315094; # Accept: 153952; % Accept : 48.8591

------------------------
--    ==========      --
--  === SYSTEM ===    --
--    ==========      --
------------------------

Energy (in K): total: 311082

Steps/sec. : 5083.88
STEP 999999 of 1000000 (99.9999% done)


------------------------
--    ==========      --
--  === BOX 0  ===    --
--    ==========      --
------------------------

Volume: 27000 A^3
Tot # mol: 41

Molecule Type ISB
-------------------
Number: 41 ;
Density: 0.146563 g/ml

Energy (in K): total: 10747.5

Displace (Box 0) -- tries: 199431; # Accept: 101132; % Accept : 50.7103; Max Amt.: 2.94032
Rotate (Box 0) -- tries: 100456; # Accept: 71824; % Accept : 71.498; Max Amt.: 3.14159
Deletion (from Box 0) -- tries: 350304; # Accept: 173030; % Accept : 49.3942


------------------------
--    ==========      --
--  === BOX 1  ===    --
--    ==========      --
------------------------

Volume: 27000 A^3
Tot # mol: 561

Molecule Type ISB
-------------------
Number: 561 ;
Density: 2.00541 g/ml

Energy (in K): total: 352322

Insertion (into Box 0) -- tries: 349809; # Accept: 173069; % Accept : 49.4753

------------------------
--    ==========      --
--  === SYSTEM ===    --
--    ==========      --
------------------------

Energy (in K): total: 363069

Simulation Time (total): 187.49sec.
