GOMC Serial Version 0.97
Started at: Sun Aug 23 20:48:17 2015
On hostname: potoff40.eng.wayne.edu

------------------------------------------------------
This code was compiled to support the Gibbs ensemble.
------------------------------------------------------

Warning: Output fluctuation has been set off, energy ouput for fluctuation will be ignored!
Warning: Output fluctuation has been set off, pressure ouput for fluctuation will be ignored!
Warning: Output fluctuation has been set off, molecule number ouput for fluctuation will be ignored!
Warning: Output fluctuation has been set off, accept angles ouput for fluctuation will be ignored!
Warning: Output fluctuation has been set off, density ouput for fluctuation will be ignored!
Reading from Exotic Parameter File file: ./Par_Mie_Alkane_Exotic.inp

Finished reading Exotic Parameter File file: ./Par_Mie_Alkane_Exotic.inp

Reading from Box 1 PDB coordinate file file: ./STEP3_START_C8P_sys_BOX_0.pdb

Finished reading Box 1 PDB coordinate file file: ./STEP3_START_C8P_sys_BOX_0.pdb

Reading from Box 2 PDB coordinate file file: ./STEP3_START_C8P_sys_BOX_1.pdb

Finished reading Box 2 PDB coordinate file file: ./STEP3_START_C8P_sys_BOX_1.pdb

Molecules in PSF:

Molecule Kind: C8P
Idx	name	type	charge	mass
0	C1	CH3	0	15.035
1	C2	CH2	0	14.027
2	C3	CH2	0	14.027
3	C4	CH2	0	14.027
4	C5	CH2	0	14.027
5	C6	CH2	0	14.027
6	C7	CH2	0	14.027
7	C8	CH3	0	15.035

Bonds:
[0 1] [1 2] [2 3] [3 4] [4 5] [5 6] [6 7] 

Angles:
[0 1 2] [1 2 3] [2 3 4] [3 4 5] [4 5 6] [5 6 7] 

Dihedrals:
[0 1 2 3] [1 2 3 4] [2 3 4 5] [3 4 5 6] [4 5 6 7] 

REMAINDER! 1-4 Interaction is OFF

Min. Box Size: 8000.1
STARTING SIMULATION!!


------------------------
--    ==========      --
--  === BOX 0  ===    --
--    ==========      --
------------------------

Volume: 84604.5 A^3
Tot # mol: 500

Molecule Type C8P
-------------------
Number: 500 ;
Density: 1.12102 g/ml

Energy (in K): total: 5.70582e+09


------------------------
--    ==========      --
--  === BOX 1  ===    --
--    ==========      --
------------------------

Volume: 1.94651e+07 A^3
Tot # mol: 500

Molecule Type C8P
-------------------
Number: 500 ;
Density: 0.00487248 g/ml

Energy (in K): total: 45806.6

------------------------
--    ==========      --
--  === SYSTEM ===    --
--    ==========      --
------------------------

Energy (in K): total: 5.70586e+09

Printed combined psf to file octane_360_00_K.psf
STEP 99999 of 1000000 (9.9999% done)


------------------------
--    ==========      --
--  === BOX 0  ===    --
--    ==========      --
------------------------

Volume: 93300.2 A^3
Tot # mol: 292

Molecule Type C8P
-------------------
Number: 292 ;
Density: 0.593659 g/ml

Energy (in K): total: -525870

Displace (Box 0) -- tries: 34467; # Accept: 17011; % Accept : 49.3545; Max Amt.: 0.287855
Rotate (Box 0) -- tries: 4896; # Accept: 2477; % Accept : 50.5923; Max Amt.: 0.207206
Molecule Transfer (Box 0 -> Box 1) -- tries: 10001; # Accept: 476; % Accept : 4.75952
Volume Transfer (Box 0 -> Box 1) -- tries: 958; # Accept: 522; % Accept : 54.4885; Max Amt.: 890.034


------------------------
--    ==========      --
--  === BOX 1  ===    --
--    ==========      --
------------------------

Volume: 1.94564e+07 A^3
Tot # mol: 708

Molecule Type C8P
-------------------
Number: 708 ;
Density: 0.00690252 g/ml

Energy (in K): total: 815627

Displace (Box 1) -- tries: 34753; # Accept: 26186; % Accept : 75.3489; Max Amt.: 134.48
Rotate (Box 1) -- tries: 4854; # Accept: 4269; % Accept : 87.9481; Max Amt.: 3.14159
Molecule Transfer (Box 1 -> Box 0) -- tries: 10071; # Accept: 268; % Accept : 2.66111
Volume Transfer (Box 1 -> Box 0) -- tries: 0; # Accept: 0; % Accept : -nan; Max Amt.: 500

------------------------
--    ==========      --
--  === SYSTEM ===    --
--    ==========      --
------------------------

Energy (in K): total: 289757

Steps/sec. : 1492.98
STEP 199999 of 1000000 (19.9999% done)


------------------------
--    ==========      --
--  === BOX 0  ===    --
--    ==========      --
------------------------

Volume: 93762 A^3
Tot # mol: 298

Molecule Type C8P
-------------------
Number: 298 ;
Density: 0.602873 g/ml

Energy (in K): total: -570401

Displace (Box 0) -- tries: 68877; # Accept: 34244; % Accept : 49.7176; Max Amt.: 0.271357
Rotate (Box 0) -- tries: 9889; # Accept: 5016; % Accept : 50.723; Max Amt.: 0.208135
Molecule Transfer (Box 0 -> Box 1) -- tries: 20099; # Accept: 484; % Accept : 2.40808
Volume Transfer (Box 0 -> Box 1) -- tries: 1957; # Accept: 1057; % Accept : 54.0112; Max Amt.: 1026


------------------------
--    ==========      --
--  === BOX 1  ===    --
--    ==========      --
------------------------

Volume: 1.9456e+07 A^3
Tot # mol: 702

Molecule Type C8P
-------------------
Number: 702 ;
Density: 0.00684418 g/ml

Energy (in K): total: 816418

Displace (Box 1) -- tries: 69296; # Accept: 51193; % Accept : 73.8758; Max Amt.: 134.479
Rotate (Box 1) -- tries: 9680; # Accept: 8329; % Accept : 86.0434; Max Amt.: 3.14159
Molecule Transfer (Box 1 -> Box 0) -- tries: 20202; # Accept: 282; % Accept : 1.3959
Volume Transfer (Box 1 -> Box 0) -- tries: 0; # Accept: 0; % Accept : -nan; Max Amt.: 500

------------------------
--    ==========      --
--  === SYSTEM ===    --
--    ==========      --
------------------------

Energy (in K): total: 246017

Steps/sec. : 1342.28
STEP 299999 of 1000000 (29.9999% done)


------------------------
--    ==========      --
--  === BOX 0  ===    --
--    ==========      --
------------------------

Volume: 92776.6 A^3
Tot # mol: 300

Molecule Type C8P
-------------------
Number: 300 ;
Density: 0.613366 g/ml

Energy (in K): total: -604669

Displace (Box 0) -- tries: 103504; # Accept: 51605; % Accept : 49.858; Max Amt.: 0.287526
Rotate (Box 0) -- tries: 14915; # Accept: 7572; % Accept : 50.7677; Max Amt.: 0.228908
Molecule Transfer (Box 0 -> Box 1) -- tries: 29983; # Accept: 488; % Accept : 1.62759
Volume Transfer (Box 0 -> Box 1) -- tries: 2966; # Accept: 1607; % Accept : 54.1807; Max Amt.: 356.98


------------------------
--    ==========      --
--  === BOX 1  ===    --
--    ==========      --
------------------------

Volume: 1.94569e+07 A^3
Tot # mol: 700

Molecule Type C8P
-------------------
Number: 700 ;
Density: 0.00682434 g/ml

Energy (in K): total: 811991

Displace (Box 1) -- tries: 103726; # Accept: 76562; % Accept : 73.8118; Max Amt.: 134.481
Rotate (Box 1) -- tries: 14709; # Accept: 12643; % Accept : 85.9542; Max Amt.: 3.14159
Molecule Transfer (Box 1 -> Box 0) -- tries: 30197; # Accept: 288; % Accept : 0.953737
Volume Transfer (Box 1 -> Box 0) -- tries: 0; # Accept: 0; % Accept : -nan; Max Amt.: 500

------------------------
--    ==========      --
--  === SYSTEM ===    --
--    ==========      --
------------------------

Energy (in K): total: 207321

Steps/sec. : 1336.54
STEP 399999 of 1000000 (39.9999% done)


------------------------
--    ==========      --
--  === BOX 0  ===    --
--    ==========      --
------------------------

Volume: 92602 A^3
Tot # mol: 306

Molecule Type C8P
-------------------
Number: 306 ;
Density: 0.626813 g/ml

Energy (in K): total: -629281

Displace (Box 0) -- tries: 137933; # Accept: 68850; % Accept : 49.9155; Max Amt.: 0.259694
Rotate (Box 0) -- tries: 19998; # Accept: 10143; % Accept : 50.7201; Max Amt.: 0.194788
Molecule Transfer (Box 0 -> Box 1) -- tries: 40079; # Accept: 489; % Accept : 1.22009
Volume Transfer (Box 0 -> Box 1) -- tries: 3984; # Accept: 2157; % Accept : 54.1416; Max Amt.: 805.991


------------------------
--    ==========      --
--  === BOX 1  ===    --
--    ==========      --
------------------------

Volume: 1.94571e+07 A^3
Tot # mol: 694

Molecule Type C8P
-------------------
Number: 694 ;
Density: 0.00676578 g/ml

Energy (in K): total: 800568

Displace (Box 1) -- tries: 138182; # Accept: 101751; % Accept : 73.6355; Max Amt.: 134.482
Rotate (Box 1) -- tries: 19679; # Accept: 16906; % Accept : 85.9088; Max Amt.: 3.14159
Molecule Transfer (Box 1 -> Box 0) -- tries: 40145; # Accept: 295; % Accept : 0.734836
Volume Transfer (Box 1 -> Box 0) -- tries: 0; # Accept: 0; % Accept : -nan; Max Amt.: 500

------------------------
--    ==========      --
--  === SYSTEM ===    --
--    ==========      --
------------------------

Energy (in K): total: 171286

Steps/sec. : 1291.32
STEP 499999 of 1000000 (49.9999% done)


------------------------
--    ==========      --
--  === BOX 0  ===    --
--    ==========      --
------------------------

Volume: 91078.6 A^3
Tot # mol: 305

Molecule Type C8P
-------------------
Number: 305 ;
Density: 0.635215 g/ml

Energy (in K): total: -669419

Displace (Box 0) -- tries: 172601; # Accept: 86201; % Accept : 49.9424; Max Amt.: 0.234716
Rotate (Box 0) -- tries: 24900; # Accept: 12647; % Accept : 50.7912; Max Amt.: 0.178376
Molecule Transfer (Box 0 -> Box 1) -- tries: 49909; # Accept: 491; % Accept : 0.98379
Volume Transfer (Box 0 -> Box 1) -- tries: 4987; # Accept: 2705; % Accept : 54.241; Max Amt.: 1532.27


------------------------
--    ==========      --
--  === BOX 1  ===    --
--    ==========      --
------------------------

Volume: 1.94586e+07 A^3
Tot # mol: 695

Molecule Type C8P
-------------------
Number: 695 ;
Density: 0.006775 g/ml

Energy (in K): total: 796937

Displace (Box 1) -- tries: 172754; # Accept: 126758; % Accept : 73.3749; Max Amt.: 134.485
Rotate (Box 1) -- tries: 24635; # Accept: 21134; % Accept : 85.7885; Max Amt.: 3.14159
Molecule Transfer (Box 1 -> Box 0) -- tries: 50214; # Accept: 296; % Accept : 0.589477
Volume Transfer (Box 1 -> Box 0) -- tries: 0; # Accept: 0; % Accept : -nan; Max Amt.: 500

------------------------
--    ==========      --
--  === SYSTEM ===    --
--    ==========      --
------------------------

Energy (in K): total: 127517

Steps/sec. : 1289.16
STEP 599999 of 1000000 (59.9999% done)


------------------------
--    ==========      --
--  === BOX 0  ===    --
--    ==========      --
------------------------

Volume: 90416.3 A^3
Tot # mol: 307

Molecule Type C8P
-------------------
Number: 307 ;
Density: 0.644063 g/ml

Energy (in K): total: -679414

Displace (Box 0) -- tries: 207330; # Accept: 103627; % Accept : 49.9817; Max Amt.: 0.269048
Rotate (Box 0) -- tries: 29903; # Accept: 15184; % Accept : 50.7775; Max Amt.: 0.238521
Molecule Transfer (Box 0 -> Box 1) -- tries: 59797; # Accept: 492; % Accept : 0.822784
Volume Transfer (Box 0 -> Box 1) -- tries: 5994; # Accept: 3250; % Accept : 54.2209; Max Amt.: 670.986


------------------------
--    ==========      --
--  === BOX 1  ===    --
--    ==========      --
------------------------

Volume: 1.94593e+07 A^3
Tot # mol: 693

Molecule Type C8P
-------------------
Number: 693 ;
Density: 0.00675527 g/ml

Energy (in K): total: 788725

Displace (Box 1) -- tries: 207188; # Accept: 151143; % Accept : 72.9497; Max Amt.: 134.487
Rotate (Box 1) -- tries: 29631; # Accept: 25297; % Accept : 85.3734; Max Amt.: 3.14159
Molecule Transfer (Box 1 -> Box 0) -- tries: 60157; # Accept: 299; % Accept : 0.497033
Volume Transfer (Box 1 -> Box 0) -- tries: 0; # Accept: 0; % Accept : -nan; Max Amt.: 500

------------------------
--    ==========      --
--  === SYSTEM ===    --
--    ==========      --
------------------------

Energy (in K): total: 109311

Steps/sec. : 1278.45
STEP 699999 of 1000000 (69.9999% done)


------------------------
--    ==========      --
--  === BOX 0  ===    --
--    ==========      --
------------------------

Volume: 91388.6 A^3
Tot # mol: 308

Molecule Type C8P
-------------------
Number: 308 ;
Density: 0.639287 g/ml

Energy (in K): total: -673716

Displace (Box 0) -- tries: 241667; # Accept: 120848; % Accept : 50.006; Max Amt.: 0.265861
Rotate (Box 0) -- tries: 34790; # Accept: 17651; % Accept : 50.7358; Max Amt.: 0.171345
Molecule Transfer (Box 0 -> Box 1) -- tries: 69812; # Accept: 494; % Accept : 0.707615
Volume Transfer (Box 0 -> Box 1) -- tries: 6958; # Accept: 3755; % Accept : 53.9667; Max Amt.: 274.606


------------------------
--    ==========      --
--  === BOX 1  ===    --
--    ==========      --
------------------------

Volume: 1.94583e+07 A^3
Tot # mol: 692

Molecule Type C8P
-------------------
Number: 692 ;
Density: 0.00674586 g/ml

Energy (in K): total: 789200

Displace (Box 1) -- tries: 241936; # Accept: 175895; % Accept : 72.7031; Max Amt.: 134.484
Rotate (Box 1) -- tries: 34670; # Accept: 29521; % Accept : 85.1485; Max Amt.: 3.14159
Molecule Transfer (Box 1 -> Box 0) -- tries: 70167; # Accept: 302; % Accept : 0.430402
Volume Transfer (Box 1 -> Box 0) -- tries: 0; # Accept: 0; % Accept : -nan; Max Amt.: 500

------------------------
--    ==========      --
--  === SYSTEM ===    --
--    ==========      --
------------------------

Energy (in K): total: 115485

Steps/sec. : 1297.02
STEP 799999 of 1000000 (79.9999% done)


------------------------
--    ==========      --
--  === BOX 0  ===    --
--    ==========      --
------------------------

Volume: 90203.2 A^3
Tot # mol: 308

Molecule Type C8P
-------------------
Number: 308 ;
Density: 0.647688 g/ml

Energy (in K): total: -695764

Displace (Box 0) -- tries: 276086; # Accept: 138077; % Accept : 50.0123; Max Amt.: 0.2635
Rotate (Box 0) -- tries: 39868; # Accept: 20234; % Accept : 50.7525; Max Amt.: 0.224816
Molecule Transfer (Box 0 -> Box 1) -- tries: 79757; # Accept: 495; % Accept : 0.620635
Volume Transfer (Box 0 -> Box 1) -- tries: 7900; # Accept: 4264; % Accept : 53.9747; Max Amt.: 659.623


------------------------
--    ==========      --
--  === BOX 1  ===    --
--    ==========      --
------------------------

Volume: 1.94595e+07 A^3
Tot # mol: 692

Molecule Type C8P
-------------------
Number: 692 ;
Density: 0.00674545 g/ml

Energy (in K): total: 797058

Displace (Box 1) -- tries: 276511; # Accept: 201134; % Accept : 72.74; Max Amt.: 134.487
Rotate (Box 1) -- tries: 39667; # Accept: 33815; % Accept : 85.2472; Max Amt.: 3.14159
Molecule Transfer (Box 1 -> Box 0) -- tries: 80211; # Accept: 303; % Accept : 0.377754
Volume Transfer (Box 1 -> Box 0) -- tries: 0; # Accept: 0; % Accept : -nan; Max Amt.: 500

------------------------
--    ==========      --
--  === SYSTEM ===    --
--    ==========      --
------------------------

Energy (in K): total: 101293

Steps/sec. : 1311.48
STEP 899999 of 1000000 (89.9999% done)


------------------------
--    ==========      --
--  === BOX 0  ===    --
--    ==========      --
------------------------

Volume: 91095.5 A^3
Tot # mol: 310

Molecule Type C8P
-------------------
Number: 310 ;
Density: 0.645508 g/ml

Energy (in K): total: -684922

Displace (Box 0) -- tries: 310445; # Accept: 155281; % Accept : 50.0188; Max Amt.: 0.243031
Rotate (Box 0) -- tries: 44823; # Accept: 22746; % Accept : 50.7463; Max Amt.: 0.19695
Molecule Transfer (Box 0 -> Box 1) -- tries: 89783; # Accept: 498; % Accept : 0.554671
Volume Transfer (Box 0 -> Box 1) -- tries: 8914; # Accept: 4824; % Accept : 54.1171; Max Amt.: 312.434


------------------------
--    ==========      --
--  === BOX 1  ===    --
--    ==========      --
------------------------

Volume: 1.94586e+07 A^3
Tot # mol: 690

Molecule Type C8P
-------------------
Number: 690 ;
Density: 0.00672627 g/ml

Energy (in K): total: 792968

Displace (Box 1) -- tries: 310985; # Accept: 226177; % Accept : 72.7292; Max Amt.: 134.485
Rotate (Box 1) -- tries: 44789; # Accept: 38163; % Accept : 85.2062; Max Amt.: 3.14159
Molecule Transfer (Box 1 -> Box 0) -- tries: 90261; # Accept: 308; % Accept : 0.341233
Volume Transfer (Box 1 -> Box 0) -- tries: 0; # Accept: 0; % Accept : -nan; Max Amt.: 500

------------------------
--    ==========      --
--  === SYSTEM ===    --
--    ==========      --
------------------------

Energy (in K): total: 108046

Steps/sec. : 1257.55
STEP 999999 of 1000000 (99.9999% done)


------------------------
--    ==========      --
--  === BOX 0  ===    --
--    ==========      --
------------------------

Volume: 91183 A^3
Tot # mol: 312

Molecule Type C8P
-------------------
Number: 312 ;
Density: 0.649049 g/ml

Energy (in K): total: -710747

Displace (Box 0) -- tries: 345160; # Accept: 172691; % Accept : 50.0322; Max Amt.: 0.259846
Rotate (Box 0) -- tries: 49784; # Accept: 25288; % Accept : 50.7954; Max Amt.: 0.203626
Molecule Transfer (Box 0 -> Box 1) -- tries: 99772; # Accept: 500; % Accept : 0.501143
Volume Transfer (Box 0 -> Box 1) -- tries: 9937; # Accept: 5371; % Accept : 54.0505; Max Amt.: 1245.32


------------------------
--    ==========      --
--  === BOX 1  ===    --
--    ==========      --
------------------------

Volume: 1.94585e+07 A^3
Tot # mol: 688

Molecule Type C8P
-------------------
Number: 688 ;
Density: 0.0067068 g/ml

Energy (in K): total: 786467

Displace (Box 1) -- tries: 345452; # Accept: 250648; % Accept : 72.5565; Max Amt.: 134.485
Rotate (Box 1) -- tries: 49696; # Accept: 42263; % Accept : 85.0431; Max Amt.: 3.14159
Molecule Transfer (Box 1 -> Box 0) -- tries: 100199; # Accept: 312; % Accept : 0.31138
Volume Transfer (Box 1 -> Box 0) -- tries: 0; # Accept: 0; % Accept : -nan; Max Amt.: 500

------------------------
--    ==========      --
--  === SYSTEM ===    --
--    ==========      --
------------------------

Energy (in K): total: 75719.4

Simulation Time (total): 762.82sec.
