GOMC Serial Version 0.97
Started at: Sun Aug 23 21:18:36 2015
On hostname: potoff44.eng.wayne.edu

------------------------------------------------------
This code was compiled to support the Gibbs ensemble.
------------------------------------------------------

Warning: Output fluctuation has been set off, energy ouput for fluctuation will be ignored!
Warning: Output fluctuation has been set off, pressure ouput for fluctuation will be ignored!
Warning: Output fluctuation has been set off, molecule number ouput for fluctuation will be ignored!
Warning: Output fluctuation has been set off, accept angles ouput for fluctuation will be ignored!
Warning: Output fluctuation has been set off, density ouput for fluctuation will be ignored!
Reading from Exotic Parameter File file: ./Par_Vrabec01_Noble_Gases_Exotic.inp

Finished reading Exotic Parameter File file: ./Par_Vrabec01_Noble_Gases_Exotic.inp

Reading from Box 1 PDB coordinate file file: ./STEP3_START_AR_KR_sys_BOX_0.pdb

Finished reading Box 1 PDB coordinate file file: ./STEP3_START_AR_KR_sys_BOX_0.pdb

Reading from Box 2 PDB coordinate file file: ./STEP3_START_AR_KR_sys_BOX_1.pdb

Finished reading Box 2 PDB coordinate file file: ./STEP3_START_AR_KR_sys_BOX_1.pdb

Molecules in PSF:

Molecule Kind: AR
Idx	name	type	charge	mass
0	AR	AR	0	39.948

Bonds:

Angles:

Dihedrals:

Molecule Kind: KR
Idx	name	type	charge	mass
0	KR	KR	0	83.798

Bonds:

Angles:

Dihedrals:

REMAINDER! 1-4 Interaction is OFF

Min. Box Size: 8000.1
STARTING SIMULATION!!


------------------------
--    ==========      --
--  === BOX 0  ===    --
--    ==========      --
------------------------

Volume: 66923.4 A^3
Tot # mol: 500

Molecule Type AR
-------------------
Number: 250 ;
Density: 0.247803 g/ml

Molecule Type KR
-------------------
Number: 250 ;
Density: 0.51981 g/ml

Energy (in K): total: 6.50902e+06


------------------------
--    ==========      --
--  === BOX 1  ===    --
--    ==========      --
------------------------

Volume: 66923.4 A^3
Tot # mol: 500

Molecule Type AR
-------------------
Number: 250 ;
Density: 0.247803 g/ml

Molecule Type KR
-------------------
Number: 250 ;
Density: 0.51981 g/ml

Energy (in K): total: -103407

------------------------
--    ==========      --
--  === SYSTEM ===    --
--    ==========      --
------------------------

Energy (in K): total: 6.40561e+06

Printed combined psf to file argon_krypton_NVT_143_15_K.psf
STEP 99999 of 1000000 (9.9999% done)


------------------------
--    ==========      --
--  === BOX 0  ===    --
--    ==========      --
------------------------

Volume: 80357.2 A^3
Tot # mol: 170

Molecule Type AR
-------------------
Number: 120 ;
Density: 0.0990606 g/ml

Molecule Type KR
-------------------
Number: 50 ;
Density: 0.0865821 g/ml

Energy (in K): total: -23651.7

Displace (Box 0) -- tries: 39779; # Accept: 19768; % Accept : 49.6946; Max Amt.: 2.63362
Rotate (Box 0) -- tries: 0; # Accept: 0; % Accept : -nan; Max Amt.: 0.785398
Molecule Transfer (Box 0 -> Box 1) -- tries: 9904; # Accept: 1906; % Accept : 19.2447
Volume Transfer (Box 0 -> Box 1) -- tries: 951; # Accept: 509; % Accept : 53.5226; Max Amt.: 955.705


------------------------
--    ==========      --
--  === BOX 1  ===    --
--    ==========      --
------------------------

Volume: 53489.7 A^3
Tot # mol: 830

Molecule Type AR
-------------------
Number: 380 ;
Density: 0.471257 g/ml

Molecule Type KR
-------------------
Number: 450 ;
Density: 1.17065 g/ml

Energy (in K): total: -552250

Displace (Box 1) -- tries: 39299; # Accept: 19254; % Accept : 48.9936; Max Amt.: 0.430902
Rotate (Box 1) -- tries: 0; # Accept: 0; % Accept : -nan; Max Amt.: 0.785398
Molecule Transfer (Box 1 -> Box 0) -- tries: 10067; # Accept: 1576; % Accept : 15.6551
Volume Transfer (Box 1 -> Box 0) -- tries: 0; # Accept: 0; % Accept : -nan; Max Amt.: 500

------------------------
--    ==========      --
--  === SYSTEM ===    --
--    ==========      --
------------------------

Energy (in K): total: -575901

Steps/sec. : 11148.3
STEP 199999 of 1000000 (19.9999% done)


------------------------
--    ==========      --
--  === BOX 0  ===    --
--    ==========      --
------------------------

Volume: 80454.7 A^3
Tot # mol: 122

Molecule Type AR
-------------------
Number: 96 ;
Density: 0.0791524 g/ml

Molecule Type KR
-------------------
Number: 26 ;
Density: 0.0449681 g/ml

Energy (in K): total: -7855.89

Displace (Box 0) -- tries: 79213; # Accept: 40040; % Accept : 50.5473; Max Amt.: 20.8539
Rotate (Box 0) -- tries: 0; # Accept: 0; % Accept : -nan; Max Amt.: 0.785398
Molecule Transfer (Box 0 -> Box 1) -- tries: 20036; # Accept: 2442; % Accept : 12.1881
Volume Transfer (Box 0 -> Box 1) -- tries: 1976; # Accept: 1050; % Accept : 53.1377; Max Amt.: 816.677


------------------------
--    ==========      --
--  === BOX 1  ===    --
--    ==========      --
------------------------

Volume: 53392.1 A^3
Tot # mol: 878

Molecule Type AR
-------------------
Number: 404 ;
Density: 0.501936 g/ml

Molecule Type KR
-------------------
Number: 474 ;
Density: 1.23533 g/ml

Energy (in K): total: -617539

Displace (Box 1) -- tries: 78863; # Accept: 39100; % Accept : 49.5797; Max Amt.: 0.464637
Rotate (Box 1) -- tries: 0; # Accept: 0; % Accept : -nan; Max Amt.: 0.785398
Molecule Transfer (Box 1 -> Box 0) -- tries: 19912; # Accept: 2064; % Accept : 10.3656
Volume Transfer (Box 1 -> Box 0) -- tries: 0; # Accept: 0; % Accept : -nan; Max Amt.: 500

------------------------
--    ==========      --
--  === SYSTEM ===    --
--    ==========      --
------------------------

Energy (in K): total: -625394

Steps/sec. : 8880.99
STEP 299999 of 1000000 (29.9999% done)


------------------------
--    ==========      --
--  === BOX 0  ===    --
--    ==========      --
------------------------

Volume: 78867 A^3
Tot # mol: 117

Molecule Type AR
-------------------
Number: 89 ;
Density: 0.0748581 g/ml

Molecule Type KR
-------------------
Number: 28 ;
Density: 0.0494021 g/ml

Energy (in K): total: -7719.26

Displace (Box 0) -- tries: 118397; # Accept: 60467; % Accept : 51.0714; Max Amt.: 21.0971
Rotate (Box 0) -- tries: 0; # Accept: 0; % Accept : -nan; Max Amt.: 0.785398
Molecule Transfer (Box 0 -> Box 1) -- tries: 30110; # Accept: 2918; % Accept : 9.69113
Volume Transfer (Box 0 -> Box 1) -- tries: 3052; # Accept: 1621; % Accept : 53.1127; Max Amt.: 912.393


------------------------
--    ==========      --
--  === BOX 1  ===    --
--    ==========      --
------------------------

Volume: 54979.8 A^3
Tot # mol: 883

Molecule Type AR
-------------------
Number: 411 ;
Density: 0.495887 g/ml

Molecule Type KR
-------------------
Number: 472 ;
Density: 1.1946 g/ml

Energy (in K): total: -613460

Displace (Box 1) -- tries: 118398; # Accept: 58889; % Accept : 49.7382; Max Amt.: 0.4287
Rotate (Box 1) -- tries: 0; # Accept: 0; % Accept : -nan; Max Amt.: 0.785398
Molecule Transfer (Box 1 -> Box 0) -- tries: 30043; # Accept: 2535; % Accept : 8.43791
Volume Transfer (Box 1 -> Box 0) -- tries: 0; # Accept: 0; % Accept : -nan; Max Amt.: 500

------------------------
--    ==========      --
--  === SYSTEM ===    --
--    ==========      --
------------------------

Energy (in K): total: -621179

Steps/sec. : 8312.55
STEP 399999 of 1000000 (39.9999% done)


------------------------
--    ==========      --
--  === BOX 0  ===    --
--    ==========      --
------------------------

Volume: 79052.7 A^3
Tot # mol: 114

Molecule Type AR
-------------------
Number: 88 ;
Density: 0.0738432 g/ml

Molecule Type KR
-------------------
Number: 26 ;
Density: 0.0457657 g/ml

Energy (in K): total: -6764.99

Displace (Box 0) -- tries: 157807; # Accept: 81566; % Accept : 51.6872; Max Amt.: 21.459
Rotate (Box 0) -- tries: 0; # Accept: 0; % Accept : -nan; Max Amt.: 0.785398
Molecule Transfer (Box 0 -> Box 1) -- tries: 40122; # Accept: 3411; % Accept : 8.50157
Volume Transfer (Box 0 -> Box 1) -- tries: 4000; # Accept: 2129; % Accept : 53.225; Max Amt.: 644.7


------------------------
--    ==========      --
--  === BOX 1  ===    --
--    ==========      --
------------------------

Volume: 54794.2 A^3
Tot # mol: 886

Molecule Type AR
-------------------
Number: 412 ;
Density: 0.498778 g/ml

Molecule Type KR
-------------------
Number: 474 ;
Density: 1.20372 g/ml

Energy (in K): total: -613857

Displace (Box 1) -- tries: 158045; # Accept: 78779; % Accept : 49.8459; Max Amt.: 0.467712
Rotate (Box 1) -- tries: 0; # Accept: 0; % Accept : -nan; Max Amt.: 0.785398
Molecule Transfer (Box 1 -> Box 0) -- tries: 40026; # Accept: 3025; % Accept : 7.55759
Volume Transfer (Box 1 -> Box 0) -- tries: 0; # Accept: 0; % Accept : -nan; Max Amt.: 500

------------------------
--    ==========      --
--  === SYSTEM ===    --
--    ==========      --
------------------------

Energy (in K): total: -620622

Steps/sec. : 9017.13
STEP 499999 of 1000000 (49.9999% done)


------------------------
--    ==========      --
--  === BOX 0  ===    --
--    ==========      --
------------------------

Volume: 79039.7 A^3
Tot # mol: 108

Molecule Type AR
-------------------
Number: 89 ;
Density: 0.0746945 g/ml

Molecule Type KR
-------------------
Number: 19 ;
Density: 0.0334496 g/ml

Energy (in K): total: -4745.09

Displace (Box 0) -- tries: 197239; # Accept: 102288; % Accept : 51.8599; Max Amt.: 21.4578
Rotate (Box 0) -- tries: 0; # Accept: 0; % Accept : -nan; Max Amt.: 0.785398
Molecule Transfer (Box 0 -> Box 1) -- tries: 50218; # Accept: 3921; % Accept : 7.80796
Volume Transfer (Box 0 -> Box 1) -- tries: 4954; # Accept: 2642; % Accept : 53.3306; Max Amt.: 924.012


------------------------
--    ==========      --
--  === BOX 1  ===    --
--    ==========      --
------------------------

Volume: 54807.1 A^3
Tot # mol: 892

Molecule Type AR
-------------------
Number: 411 ;
Density: 0.49745 g/ml

Molecule Type KR
-------------------
Number: 481 ;
Density: 1.22121 g/ml

Energy (in K): total: -624092

Displace (Box 1) -- tries: 197538; # Accept: 98538; % Accept : 49.8831; Max Amt.: 0.427252
Rotate (Box 1) -- tries: 0; # Accept: 0; % Accept : -nan; Max Amt.: 0.785398
Molecule Transfer (Box 1 -> Box 0) -- tries: 50051; # Accept: 3529; % Accept : 7.05081
Volume Transfer (Box 1 -> Box 0) -- tries: 0; # Accept: 0; % Accept : -nan; Max Amt.: 500

------------------------
--    ==========      --
--  === SYSTEM ===    --
--    ==========      --
------------------------

Energy (in K): total: -628837

Steps/sec. : 9057.97
STEP 599999 of 1000000 (59.9999% done)


------------------------
--    ==========      --
--  === BOX 0  ===    --
--    ==========      --
------------------------

Volume: 78218.9 A^3
Tot # mol: 118

Molecule Type AR
-------------------
Number: 94 ;
Density: 0.0797187 g/ml

Molecule Type KR
-------------------
Number: 24 ;
Density: 0.0426955 g/ml

Energy (in K): total: -7536.66

Displace (Box 0) -- tries: 236751; # Accept: 123654; % Accept : 52.2296; Max Amt.: 21.3833
Rotate (Box 0) -- tries: 0; # Accept: 0; % Accept : -nan; Max Amt.: 0.785398
Molecule Transfer (Box 0 -> Box 1) -- tries: 60213; # Accept: 4455; % Accept : 7.39873
Volume Transfer (Box 0 -> Box 1) -- tries: 5940; # Accept: 3171; % Accept : 53.3838; Max Amt.: 724.958


------------------------
--    ==========      --
--  === BOX 1  ===    --
--    ==========      --
------------------------

Volume: 55627.9 A^3
Tot # mol: 882

Molecule Type AR
-------------------
Number: 406 ;
Density: 0.484147 g/ml

Molecule Type KR
-------------------
Number: 476 ;
Density: 1.19068 g/ml

Energy (in K): total: -600274

Displace (Box 1) -- tries: 237172; # Accept: 118401; % Accept : 49.922; Max Amt.: 0.436722
Rotate (Box 1) -- tries: 0; # Accept: 0; % Accept : -nan; Max Amt.: 0.785398
Molecule Transfer (Box 1 -> Box 0) -- tries: 59924; # Accept: 4073; % Accept : 6.79694
Volume Transfer (Box 1 -> Box 0) -- tries: 0; # Accept: 0; % Accept : -nan; Max Amt.: 500

------------------------
--    ==========      --
--  === SYSTEM ===    --
--    ==========      --
------------------------

Energy (in K): total: -607811

Steps/sec. : 8849.56
STEP 699999 of 1000000 (69.9999% done)


------------------------
--    ==========      --
--  === BOX 0  ===    --
--    ==========      --
------------------------

Volume: 76670.9 A^3
Tot # mol: 78

Molecule Type AR
-------------------
Number: 64 ;
Density: 0.0553724 g/ml

Molecule Type KR
-------------------
Number: 14 ;
Density: 0.0254086 g/ml

Energy (in K): total: -3455.5

Displace (Box 0) -- tries: 276262; # Accept: 146068; % Accept : 52.873; Max Amt.: 21.2413
Rotate (Box 0) -- tries: 0; # Accept: 0; % Accept : -nan; Max Amt.: 0.785398
Molecule Transfer (Box 0 -> Box 1) -- tries: 70140; # Accept: 5075; % Accept : 7.23553
Volume Transfer (Box 0 -> Box 1) -- tries: 6951; # Accept: 3725; % Accept : 53.5894; Max Amt.: 576.705


------------------------
--    ==========      --
--  === BOX 1  ===    --
--    ==========      --
------------------------

Volume: 57175.9 A^3
Tot # mol: 922

Molecule Type AR
-------------------
Number: 436 ;
Density: 0.505845 g/ml

Molecule Type KR
-------------------
Number: 486 ;
Density: 1.18279 g/ml

Energy (in K): total: -639378

Displace (Box 1) -- tries: 276787; # Accept: 138249; % Accept : 49.9478; Max Amt.: 0.430519
Rotate (Box 1) -- tries: 0; # Accept: 0; % Accept : -nan; Max Amt.: 0.785398
Molecule Transfer (Box 1 -> Box 0) -- tries: 69860; # Accept: 4653; % Accept : 6.66046
Volume Transfer (Box 1 -> Box 0) -- tries: 0; # Accept: 0; % Accept : -nan; Max Amt.: 500

------------------------
--    ==========      --
--  === SYSTEM ===    --
--    ==========      --
------------------------

Energy (in K): total: -642834

Steps/sec. : 8547.01
STEP 799999 of 1000000 (79.9999% done)


------------------------
--    ==========      --
--  === BOX 0  ===    --
--    ==========      --
------------------------

Volume: 75718 A^3
Tot # mol: 69

Molecule Type AR
-------------------
Number: 61 ;
Density: 0.0534411 g/ml

Molecule Type KR
-------------------
Number: 8 ;
Density: 0.0147019 g/ml

Energy (in K): total: -3074.87

Displace (Box 0) -- tries: 316057; # Accept: 170456; % Accept : 53.932; Max Amt.: 21.1529
Rotate (Box 0) -- tries: 0; # Accept: 0; % Accept : -nan; Max Amt.: 0.785398
Molecule Transfer (Box 0 -> Box 1) -- tries: 79955; # Accept: 5685; % Accept : 7.11025
Volume Transfer (Box 0 -> Box 1) -- tries: 7919; # Accept: 4241; % Accept : 53.5547; Max Amt.: 833.112


------------------------
--    ==========      --
--  === BOX 1  ===    --
--    ==========      --
------------------------

Volume: 58128.9 A^3
Tot # mol: 931

Molecule Type AR
-------------------
Number: 439 ;
Density: 0.500976 g/ml

Molecule Type KR
-------------------
Number: 492 ;
Density: 1.17776 g/ml

Energy (in K): total: -643440

Displace (Box 1) -- tries: 316208; # Accept: 157993; % Accept : 49.9649; Max Amt.: 0.426818
Rotate (Box 1) -- tries: 0; # Accept: 0; % Accept : -nan; Max Amt.: 0.785398
Molecule Transfer (Box 1 -> Box 0) -- tries: 79861; # Accept: 5254; % Accept : 6.57893
Volume Transfer (Box 1 -> Box 0) -- tries: 0; # Accept: 0; % Accept : -nan; Max Amt.: 500

------------------------
--    ==========      --
--  === SYSTEM ===    --
--    ==========      --
------------------------

Energy (in K): total: -646515

Steps/sec. : 8613.26
STEP 899999 of 1000000 (89.9999% done)


------------------------
--    ==========      --
--  === BOX 0  ===    --
--    ==========      --
------------------------

Volume: 74089.3 A^3
Tot # mol: 58

Molecule Type AR
-------------------
Number: 48 ;
Density: 0.0429764 g/ml

Molecule Type KR
-------------------
Number: 10 ;
Density: 0.0187814 g/ml

Energy (in K): total: -1820.51

Displace (Box 0) -- tries: 355537; # Accept: 195855; % Accept : 55.0871; Max Amt.: 21.0001
Rotate (Box 0) -- tries: 0; # Accept: 0; % Accept : -nan; Max Amt.: 0.785398
Molecule Transfer (Box 0 -> Box 1) -- tries: 89925; # Accept: 6323; % Accept : 7.03142
Volume Transfer (Box 0 -> Box 1) -- tries: 8934; # Accept: 4798; % Accept : 53.7049; Max Amt.: 792.975


------------------------
--    ==========      --
--  === BOX 1  ===    --
--    ==========      --
------------------------

Volume: 59757.5 A^3
Tot # mol: 942

Molecule Type AR
-------------------
Number: 452 ;
Density: 0.501753 g/ml

Molecule Type KR
-------------------
Number: 490 ;
Density: 1.141 g/ml

Energy (in K): total: -637034

Displace (Box 1) -- tries: 355682; # Accept: 177781; % Accept : 49.9831; Max Amt.: 0.438754
Rotate (Box 1) -- tries: 0; # Accept: 0; % Accept : -nan; Max Amt.: 0.785398
Molecule Transfer (Box 1 -> Box 0) -- tries: 89922; # Accept: 5881; % Accept : 6.54011
Volume Transfer (Box 1 -> Box 0) -- tries: 0; # Accept: 0; % Accept : -nan; Max Amt.: 500

------------------------
--    ==========      --
--  === SYSTEM ===    --
--    ==========      --
------------------------

Energy (in K): total: -638855

Steps/sec. : 8223.68
STEP 999999 of 1000000 (99.9999% done)


------------------------
--    ==========      --
--  === BOX 0  ===    --
--    ==========      --
------------------------

Volume: 75032.2 A^3
Tot # mol: 72

Molecule Type AR
-------------------
Number: 57 ;
Density: 0.0503931 g/ml

Molecule Type KR
-------------------
Number: 15 ;
Density: 0.027818 g/ml

Energy (in K): total: -1960.01

Displace (Box 0) -- tries: 394841; # Accept: 221059; % Accept : 55.9868; Max Amt.: 21.0888
Rotate (Box 0) -- tries: 0; # Accept: 0; % Accept : -nan; Max Amt.: 0.785398
Molecule Transfer (Box 0 -> Box 1) -- tries: 99951; # Accept: 7031; % Accept : 7.03445
Volume Transfer (Box 0 -> Box 1) -- tries: 9934; # Accept: 5337; % Accept : 53.7246; Max Amt.: 1060.29


------------------------
--    ==========      --
--  === BOX 1  ===    --
--    ==========      --
------------------------

Volume: 58814.6 A^3
Tot # mol: 928

Molecule Type AR
-------------------
Number: 443 ;
Density: 0.499647 g/ml

Molecule Type KR
-------------------
Number: 485 ;
Density: 1.14747 g/ml

Energy (in K): total: -620837

Displace (Box 1) -- tries: 395331; # Accept: 197649; % Accept : 49.9958; Max Amt.: 0.464984
Rotate (Box 1) -- tries: 0; # Accept: 0; % Accept : -nan; Max Amt.: 0.785398
Molecule Transfer (Box 1 -> Box 0) -- tries: 99943; # Accept: 6603; % Accept : 6.60677
Volume Transfer (Box 1 -> Box 0) -- tries: 0; # Accept: 0; % Accept : -nan; Max Amt.: 500

------------------------
--    ==========      --
--  === SYSTEM ===    --
--    ==========      --
------------------------

Energy (in K): total: -622797

Simulation Time (total): 113.17sec.
